ITEM: TIMESTEP
1100
ITEM: NUMBER OF ATOMS
3412
ITEM: BOX BOUNDS pp pp ff
0 40
0 40
0 42
ITEM: ATOMS id type x y z 
1 1 0 0 0 
2 1 0 2 0 
3 1 0 4 0 
21 1 2 0 0 
22 1 2 2 0 
23 1 2 4 0 
41 1 4 0 0 
42 1 4 2 0 
43 1 4 4 0 
802 2 0.361749 0.0358849 1.93426 
803 2 0.436127 0.174893 2.96657 
804 2 0.526343 0.427951 3.96689 
805 2 0.426832 0.620232 4.86728 
821 2 39.9375 4.34969 1.08746 
822 2 0.571434 4.25085 1.83141 
823 2 0.714358 3.93447 2.85833 
824 2 0.703998 3.839 4.02437 
825 2 0.694198 3.73687 5.04885 
1001 2 4.10766 0.0481256 1.07229 
1002 2 4.20409 0.687701 1.85285 
1003 2 4.0981 1.06315 2.84174 
1004 2 3.84071 1.26114 3.58387 
1005 2 3.43837 1.58661 4.41789 
1021 2 4.16136 3.7782 1.156 
1022 2 3.92181 3.08797 1.83272 
1023 2 4.1175 2.57375 2.58376 
1024 2 4.33302 2.10985 3.34422 
1025 2 4.43413 1.80701 4.30124 
2801 3 1.47439 39.786 4.16092 
2806 3 0.0585916 4.809 4.49076 
2851 3 4.33487 0.690116 4.16808 
2856 3 4.57318 3.03658 3.65738 
3491 4 3.31816 2.30022 3.24227 
3680 4 3.76145 2.52226 5.05594 
801 2 0.34651 39.6696 1.09234 
61 1 6 0 0 
62 1 6 2 0 
63 1 6 4 0 
81 1 8 0 0 
82 1 8 2 0 
83 1 8 4 0 
101 1 10 0 0 
102 1 10 2 0 
103 1 10 4 0 
1201 2 7.88159 0.347549 1.14107 
1202 2 8.23753 0.926331 1.90565 
1203 2 8.12344 1.11651 2.89776 
1204 2 7.71142 1.00967 3.88062 
1205 2 7.83365 1.13608 5.11362 
1221 2 7.97218 3.30896 1.00997 
1222 2 8.25125 2.656 1.74848 
1223 2 8.44895 2.38479 2.75436 
1224 2 8.37371 2.19925 3.66555 
1225 2 8.34972 2.13374 4.66504 
2901 3 8.66323 1.16973 4.07893 
2906 3 7.51087 2.03728 3.67986 
3691 4 9.2193 1.67252 5.05371 
121 1 12 0 0 
122 1 12 2 0 
123 1 12 4 0 
141 1 14 0 0 
142 1 14 2 0 
143 1 14 4 0 
161 1 16 0 0 
162 1 16 2 0 
163 1 16 4 0 
1401 2 11.6037 39.429 1.11765 
1402 2 11.7379 39.6989 1.97245 
1403 2 12.1878 0.0307138 3.00188 
1404 2 12.2862 -0.0177504 3.99166 
1405 2 12.1812 39.9089 4.84877 
1421 2 12.2858 4.19891 1.15211 
1422 2 12.2225 3.82754 2.30491 
1423 2 12.2473 3.68483 3.23104 
1424 2 12.7148 4.29037 4.14592 
1425 2 12.6675 4.35103 5.3039 
1601 2 15.7885 0.782266 1.05979 
1602 2 16.404 1.6307 1.6318 
1603 2 17.0687 2.48197 2.24313 
1604 2 17.272 3.30278 3.0997 
1621 2 15.9625 3.28629 1.12075 
1622 2 15.9962 3.04896 2.23509 
1623 2 15.9417 2.96521 3.22849 
1624 2 16.237 3.30408 3.93191 
1625 2 16.4554 3.95961 4.67211 
2951 3 13.2031 0.371037 3.97706 
2956 3 13.3288 4.32883 3.60202 
3001 3 16.8023 2.30971 3.27498 
3006 3 16.3637 4.32846 3.79204 
3728 4 16.2745 5.26203 4.64572 
3011 3 17.028 5.36666 3.42672 
3398 4 17.2023 4.63207 4.28774 
1605 2 17.4649 3.59849 4.10482 
181 1 18 0 0 
182 1 18 2 0 
183 1 18 4 0 
201 1 20 0 0 
202 1 20 2 0 
203 1 20 4 0 
221 1 22 0 0 
222 1 22 2 0 
223 1 22 4 0 
1821 2 19.2697 4.1699 1.03656 
1822 2 18.8959 4.59205 1.79254 
1823 2 18.6651 4.9929 3.00637 
1824 2 18.4125 5.09122 3.90542 
1825 2 18.1078 5.02528 4.85845 
3056 3 19.31 5.27267 4.49754 
1645 2 17.5929 5.6662 4.01742 
1606 2 17.5327 3.97502 5.18642 
3735 4 17.652 4.50285 3.36318 
1644 2 17.7523 5.68145 2.88228 
1646 2 17.1493 5.64257 5.03541 
241 1 24 0 0 
242 1 24 2 0 
243 1 24 4 0 
261 1 26 0 0 
262 1 26 2 0 
263 1 26 4 0 
281 1 28 0 0 
282 1 28 2 0 
283 1 28 4 0 
2021 2 24.6907 4.12096 1.14756 
2022 2 25.4688 4.24273 1.93951 
2023 2 25.936 4.44889 2.71374 
2024 2 26.4415 4.77977 3.71805 
2025 2 26.7641 4.57567 4.70606 
2201 2 27.939 0.378447 1.08551 
2202 2 27.834 0.705432 1.99675 
2203 2 27.5738 1.12781 3.06595 
2204 2 27.6592 1.56412 3.95673 
2205 2 27.731 2.43931 4.68292 
2221 2 28.2 4.39744 1.05974 
2222 2 27.7793 4.87635 1.83169 
2223 2 27.4284 5.13436 2.90052 
2224 2 27.4001 4.99367 3.88569 
2225 2 27.7467 4.7773 4.87437 
3156 3 27.5866 3.98569 3.68249 
3529 4 27.356 1.81054 1.17614 
3151 3 28.5054 0.96419 4.18212 
2244 2 26.7725 6.06419 3.51477 
2245 2 26.5215 5.82845 4.4934 
3378 4 27.5949 5.8433 1.19097 
301 1 30 0 0 
302 1 30 2 0 
303 1 30 4 0 
321 1 32 0 0 
322 1 32 2 0 
323 1 32 4 0 
341 1 34 0 0 
342 1 34 2 0 
343 1 34 4 0 
2421 2 32.2072 4.25221 1.02785 
2422 2 32.4598 4.86553 1.78331 
2423 2 32.7575 5.13162 2.6609 
2424 2 32.949 5.21101 3.46499 
2425 2 33.0853 5.30187 4.71436 
2444 2 31.8082 5.53701 3.10099 
2445 2 31.9808 5.35943 3.93643 
3363 4 31.5687 5.36462 1.18284 
2446 2 31.85 5.26022 4.95279 
361 1 36 0 0 
362 1 36 2 0 
363 1 36 4 0 
381 1 38 0 0 
382 1 38 2 0 
383 1 38 4 0 
2621 2 36.2561 4.57275 1.10208 
2622 2 36.3987 4.34151 2.05847 
2623 2 36.1726 4.17909 3.08089 
2624 2 36.1082 4.08671 4.25635 
2625 2 36.3927 4.70094 5.06769 
3256 3 35.5515 5.17624 3.64928 
3557 4 34.5917 4.64966 3.10857 
4 1 0 6 0 
5 1 0 8 0 
6 1 0 10 0 
24 1 2 6 0 
25 1 2 8 0 
26 1 2 10 0 
44 1 4 6 0 
45 1 4 8 0 
46 1 4 10 0 
841 2 0.252194 8.27567 1.19173 
842 2 0.873326 8.20179 2.0158 
843 2 1.38166 8.45333 2.96636 
844 2 1.56043 8.41956 3.88769 
845 2 1.39699 8.44108 4.85151 
1041 2 3.62527 8.56697 1.04879 
1042 2 2.48966 8.7481 1.30838 
1043 2 1.42788 9.00125 1.56186 
1044 2 0.745602 9.13595 2.45181 
1045 2 0.616927 9.21744 3.48336 
2811 3 1.60606 9.24889 3.90932 
2861 3 1.68174 9.61732 2.71867 
3468 4 1.62452 7.8143 1.17811 
3708 4 1.13372 10.2896 4.19427 
862 2 0.364781 10.9201 1.17423 
863 2 0.562943 10.5235 2.13935 
864 2 0.506647 10.2334 3.21014 
865 2 0.167519 10.0549 4.05898 
1062 2 2.86976 11.3414 2.07411 
1063 2 2.25183 10.7237 2.78523 
1064 2 1.99314 10.3288 3.65383 
1065 2 2.31089 10.1848 4.69049 
2816 3 1.11107 11.2484 3.4809 
2866 3 2.23039 11.1202 4.04505 
1046 2 0.759517 9.23585 4.47017 
1047 2 1.53189 9.48711 5.2251 
3602 4 0.744172 10.445 5.19102 
3424 4 1.78732 11.3573 5.27673 
64 1 6 6 0 
65 1 6 8 0 
66 1 6 10 0 
84 1 8 6 0 
85 1 8 8 0 
86 1 8 10 0 
104 1 10 6 0 
105 1 10 8 0 
106 1 10 10 0 
1241 2 8.06526 8.60529 1.05424 
1242 2 8.80112 9.21215 1.34158 
1243 2 9.41888 9.57683 2.17737 
1244 2 9.66521 9.54189 2.98613 
1245 2 9.94196 9.52219 4.07211 
2911 3 9.97887 8.81291 2.40533 
3476 4 9.8564 8.86436 1.26167 
1442 2 10.9886 9.23946 1.25798 
1443 2 10.5318 9.65112 1.76185 
1444 2 10.4435 10.1749 2.59705 
1445 2 10.3641 10.3677 3.48513 
2961 3 10.7544 9.43597 3.20251 
3618 4 9.90202 10.2615 1.13987 
1262 2 8.99693 10.8096 1.78149 
1263 2 9.37299 10.6008 2.77366 
1264 2 9.28645 10.5386 3.72822 
1265 2 9.1862 10.3051 4.89536 
2916 3 9.42823 11.3978 4.34088 
1462 2 11.0998 11.3925 1.10639 
1463 2 11.0923 10.4006 1.20921 
1464 2 11.4072 10.024 2.17771 
1465 2 11.5184 10.1845 3.05057 
2966 3 11.3516 9.08989 2.31955 
3313 4 9.98033 10.9595 2.00357 
1246 2 9.80606 9.2537 5.13782 
1446 2 10.163 10.5109 4.49371 
1466 2 11.2231 10.0523 4.0107 
1467 2 10.7271 9.63665 4.83056 
124 1 12 6 0 
125 1 12 8 0 
126 1 12 10 0 
144 1 14 6 0 
145 1 14 8 0 
146 1 14 10 0 
164 1 16 6 0 
165 1 16 8 0 
166 1 16 10 0 
1441 2 11.7688 8.26466 1.06068 
1641 2 16.3046 7.92258 1.07275 
1642 2 16.7484 6.89648 1.2702 
3358 4 12.076 9.84681 1.36425 
1643 2 17.046 6.20114 1.8714 
184 1 18 6 0 
185 1 18 8 0 
186 1 18 10 0 
204 1 20 6 0 
205 1 20 8 0 
206 1 20 10 0 
224 1 22 6 0 
225 1 22 8 0 
226 1 22 10 0 
1841 2 19.6061 7.22606 1.0258 
1842 2 18.9672 6.84707 1.81143 
1843 2 18.7275 6.43154 2.92098 
1844 2 18.5529 6.14852 3.76139 
1845 2 18.1367 6.12539 4.80127 
3061 3 19.4269 6.24318 4.09538 
3106 3 25.6467 5.3788 3.83355 
244 1 24 6 0 
245 1 24 8 0 
246 1 24 10 0 
264 1 26 6 0 
265 1 26 8 0 
266 1 26 10 0 
284 1 28 6 0 
285 1 28 8 0 
286 1 28 10 0 
2041 2 24.5757 7.75735 1.07467 
2042 2 24.5239 7.7486 2.0214 
2043 2 24.3925 7.38449 3.31152 
2044 2 24.5011 7.27454 4.2361 
2045 2 24.7119 7.29723 5.10392 
2241 2 28.0744 7.2243 1.08794 
2242 2 27.2724 6.8082 1.61429 
2243 2 26.8929 6.08766 2.42953 
3111 3 25.7081 6.83862 4.34722 
3811 6 28.0124 6.05924 2.21113 
3161 3 27.9122 5.85341 3.50649 
3206 3 32.6312 6.14075 3.39777 
304 1 30 6 0 
305 1 30 8 0 
306 1 30 10 0 
324 1 32 6 0 
325 1 32 8 0 
326 1 32 10 0 
344 1 34 6 0 
345 1 34 8 0 
346 1 34 10 0 
2441 2 31.8918 7.40071 1.00964 
2442 2 31.9955 6.49071 1.40767 
2443 2 31.9587 5.73088 2.28788 
3211 3 31.2275 6.37068 2.84896 
3458 4 30.9463 6.23478 1.23967 
364 1 36 6 0 
365 1 36 8 0 
366 1 36 10 0 
384 1 38 6 0 
385 1 38 8 0 
386 1 38 10 0 
2641 2 36.4987 8.28232 1.1104 
2642 2 36.9067 9.0963 1.11167 
2643 2 37.3967 9.26796 1.97739 
2644 2 37.9257 9.0125 2.9024 
2645 2 38.2885 9.09468 3.87196 
3261 3 37.4005 8.36378 3.4789 
2662 2 35.9141 10.8997 1.40424 
2663 2 36.4729 10.1363 1.91153 
2664 2 36.8992 9.56746 2.96172 
2665 2 36.9802 9.29246 3.96019 
3266 3 37.7902 10.0697 2.92972 
3552 4 36.9663 11.1148 1.35778 
2646 2 38.42 8.89692 4.92388 
866 2 39.7716 10.0448 4.98136 
2666 2 37.2683 9.36049 5.07368 
7 1 0 12 0 
8 1 0 14 0 
9 1 0 16 0 
27 1 2 12 0 
28 1 2 14 0 
29 1 2 16 0 
47 1 4 12 0 
48 1 4 14 0 
49 1 4 16 0 
861 2 0.45501 11.9318 1.07305 
1061 2 3.51083 11.8258 1.10345 
1081 2 3.86676 16.6198 1.05786 
1082 2 4.20831 17.1747 1.55799 
3577 4 5.21402 16.6501 1.1925 
2876 3 3.83768 16.7397 2.60615 
883 2 0.27382 16.2703 2.9332 
884 2 0.352886 16.763 3.71733 
885 2 0.31171 16.6678 4.89165 
67 1 6 12 0 
68 1 6 14 0 
69 1 6 16 0 
87 1 8 12 0 
88 1 8 14 0 
89 1 8 16 0 
107 1 10 12 0 
108 1 10 14 0 
109 1 10 16 0 
1261 2 8.52377 11.6784 1.02394 
1281 2 8.1246 16.4316 1.07723 
1282 2 8.79397 16.6327 1.79859 
1283 2 9.10901 17.2013 2.82647 
1482 2 10.9675 16.6475 1.12418 
1485 2 10.1438 17.1378 4.1462 
2971 3 11.2647 16.9571 3.06265 
1486 2 10.4252 17.0319 5.22497 
1483 2 10.2651 17.1995 1.9663 
1484 2 10.2823 17.2065 3.09767 
127 1 12 12 0 
128 1 12 14 0 
129 1 12 16 0 
147 1 14 12 0 
148 1 14 14 0 
149 1 14 16 0 
167 1 16 12 0 
168 1 16 14 0 
169 1 16 16 0 
1461 2 11.5749 12.0681 1.11316 
1481 2 11.9133 16.3912 1.05366 
1661 2 16.0434 12.7817 1.00794 
1662 2 15.6525 13.1624 1.95862 
1663 2 15.3878 13.7101 2.75803 
1664 2 15.4376 13.6998 3.84041 
1665 2 15.505 13.6344 4.72879 
1681 2 15.824 15.799 1.06272 
1682 2 16.2617 15.1158 1.64754 
1683 2 16.3662 14.4506 2.37564 
1684 2 16.4035 13.749 3.06686 
1685 2 16.6039 13.8392 3.94665 
3016 3 15.6563 14.6594 3.84514 
3021 3 15.9578 14.7473 2.90966 
3694 4 14.874 14.7754 2.97562 
1686 2 16.8072 13.4016 4.92592 
187 1 18 12 0 
188 1 18 14 0 
189 1 18 16 0 
207 1 20 12 0 
208 1 20 14 0 
209 1 20 16 0 
227 1 22 12 0 
228 1 22 14 0 
229 1 22 16 0 
1861 2 19.8063 11.7413 1.09751 
1862 2 19.8565 12.1628 1.933 
1863 2 19.7389 12.4044 2.84805 
1864 2 19.5537 12.4664 3.96665 
1865 2 19.2035 12.4102 4.965 
1881 2 20.1279 16.1089 1.11261 
1882 2 19.6608 15.5189 1.99016 
1883 2 19.6769 15.2563 2.9409 
1884 2 19.8607 15.2687 4.1883 
1885 2 19.6005 15.3902 5.09514 
3066 3 20.3699 13.3123 4.21376 
3071 3 20.8982 15.5664 4.47905 
3353 4 20.531 12.3613 5.04881 
247 1 24 12 0 
248 1 24 14 0 
249 1 24 16 0 
267 1 26 12 0 
268 1 26 14 0 
269 1 26 16 0 
287 1 28 12 0 
288 1 28 14 0 
289 1 28 16 0 
2061 2 24.6064 12.0468 1.16101 
2062 2 24.561 13.0034 1.87349 
2063 2 24.8676 13.7694 2.45225 
2064 2 25.3962 13.8095 3.33151 
2065 2 25.5063 13.7222 4.33184 
2081 2 24.417 15.3435 1.05947 
2082 2 24.5932 14.9111 1.91525 
2083 2 25.1088 14.741 2.96458 
2084 2 25.5294 14.7331 3.97787 
2085 2 25.7297 14.6779 4.73816 
2261 2 27.3541 12.1201 1.0641 
2262 2 26.7604 12.6894 1.75051 
2263 2 26.3464 13.2381 2.83871 
2264 2 26.4321 13.3847 3.82783 
2265 2 26.4235 13.5967 4.92708 
2281 2 27.6666 15.6495 1.02136 
2282 2 27.4112 14.8722 1.66973 
2283 2 27.2699 14.0055 2.38283 
2284 2 27.3126 13.9189 3.38678 
2285 2 27.4909 14.0824 4.05564 
3116 3 26.1757 14.3358 3.08584 
3121 3 26.3821 15.1866 3.82088 
3166 3 26.4846 14.17 4.11333 
3392 4 24.9164 14.0003 1.29642 
3171 3 27.3197 14.6272 3.68043 
2066 2 25.3723 13.3378 5.27588 
2286 2 27.1587 14.5619 5.15785 
307 1 30 12 0 
308 1 30 14 0 
309 1 30 16 0 
327 1 32 12 0 
328 1 32 14 0 
329 1 32 16 0 
347 1 34 12 0 
348 1 34 14 0 
349 1 34 16 0 
2461 2 31.6344 12.312 1.10442 
2462 2 31.929 12.5065 2.08311 
2463 2 32.1602 12.9592 2.83326 
2464 2 31.593 13.4748 3.52117 
2465 2 31.2968 13.7089 4.44634 
2481 2 32.0844 15.2764 1.04165 
2482 2 32.2574 15.1883 2.05092 
2483 2 32.4698 15.1089 3.14999 
2484 2 32.5352 15.0944 4.15249 
2485 2 32.3776 14.7983 5.04179 
3216 3 31.6592 14.3111 3.08604 
3221 3 32.4144 14.0587 4.03108 
3579 4 31.6689 13.4503 1.25192 
881 2 0.611748 16.382 1.09649 
882 2 0.353232 15.9686 1.96915 
2821 3 0.543471 15.8124 4.12131 
367 1 36 12 0 
368 1 36 14 0 
369 1 36 16 0 
387 1 38 12 0 
388 1 38 14 0 
389 1 38 16 0 
2661 2 35.9361 11.9061 1.12391 
2681 2 36.0497 16.7002 1.01676 
2682 2 35.4405 17.1013 1.74418 
1083 2 4.91193 17.393 2.50797 
1084 2 5.22428 17.4766 3.45836 
1085 2 5.13809 17.255 4.55687 
2871 3 5.15979 18.5006 3.6879 
3727 4 3.12143 17.7644 1.30007 
10 1 0 18 0 
11 1 0 20 0 
12 1 0 22 0 
30 1 2 18 0 
31 1 2 20 0 
32 1 2 22 0 
50 1 4 18 0 
51 1 4 20 0 
52 1 4 22 0 
1101 2 4.17439 19.8618 1.13116 
1102 2 4.28536 18.8883 1.3416 
1103 2 4.07652 18.132 1.86562 
1104 2 4.14477 17.8828 3.01419 
1105 2 4.33929 17.8403 4.00963 
3402 4 4.92369 17.8933 1.18184 
1106 2 4.37963 17.9355 5.02943 
1284 2 9.1409 17.4068 3.8788 
1285 2 9.36558 17.7018 4.61455 
2921 3 9.71464 18.117 3.92503 
3783 4 8.95582 17.3842 1.08702 
70 1 6 18 0 
71 1 6 20 0 
72 1 6 22 0 
90 1 8 18 0 
91 1 8 20 0 
92 1 8 22 0 
110 1 10 18 0 
111 1 10 20 0 
112 1 10 22 0 
1301 2 8.53533 19.6889 1.13847 
1302 2 8.44474 18.5922 1.24081 
1303 2 8.78058 18.2516 2.10438 
1304 2 8.85876 18.3257 3.20885 
1305 2 8.82938 18.4801 4.23446 
2926 3 9.78369 18.9125 3.26195 
3505 4 10.2577 18.8372 1.16524 
1502 2 11.8426 19.2559 1.1449 
1503 2 11.2596 18.3345 1.5593 
1504 2 10.9257 17.9483 2.70092 
1505 2 10.7662 18.0268 3.71328 
2976 3 9.82767 18.1259 2.51317 
1306 2 9.103 18.5177 5.31864 
1506 2 10.3814 18.0519 4.79014 
130 1 12 18 0 
131 1 12 20 0 
132 1 12 22 0 
150 1 14 18 0 
151 1 14 20 0 
152 1 14 22 0 
170 1 16 18 0 
171 1 16 20 0 
172 1 16 22 0 
1501 2 12.2142 20.0815 1.09814 
1701 2 16.3789 20.1628 1.0377 
1702 2 15.9693 20.0302 1.96669 
1703 2 15.4639 19.4715 2.87392 
1704 2 15.3457 19.5323 3.98281 
1705 2 15.0781 19.7104 4.89826 
3026 3 15.5162 20.2795 3.5196 
3585 4 14.8321 19.4449 1.4791 
190 1 18 18 0 
191 1 18 20 0 
192 1 18 22 0 
210 1 20 18 0 
211 1 20 20 0 
212 1 20 22 0 
230 1 22 18 0 
231 1 22 20 0 
232 1 22 22 0 
1901 2 19.8715 20.2027 1.12251 
1902 2 20.0363 21.1114 2.0478 
1903 2 19.9134 21.7506 2.6912 
1904 2 19.5618 22.649 3.18181 
1905 2 19.3506 22.7784 4.37439 
3076 3 20.4092 22.1734 3.83157 
3432 4 18.5624 19.9904 1.20699 
250 1 24 18 0 
251 1 24 20 0 
252 1 24 22 0 
270 1 26 18 0 
271 1 26 20 0 
272 1 26 22 0 
290 1 28 18 0 
291 1 28 20 0 
292 1 28 22 0 
2101 2 23.56 19.6309 1.09562 
2102 2 23.9527 19.7205 2.0997 
2103 2 24.2181 19.6646 3.12358 
2104 2 24.6139 19.9061 4.08154 
2105 2 25.2317 20.4936 4.69175 
2301 2 27.714 19.6429 1.16168 
2302 2 27.7692 19.6987 1.99109 
2303 2 27.7556 19.9414 2.99196 
2304 2 27.4214 20.2318 3.88756 
2305 2 26.7715 20.1747 4.98824 
3126 3 23.8348 20.6391 3.52829 
3176 3 28.0715 20.6524 4.25449 
3794 4 27.5814 19.616 5.34532 
3360 4 28.7093 19.8297 3.56244 
310 1 30 18 0 
311 1 30 20 0 
312 1 30 22 0 
330 1 32 18 0 
331 1 32 20 0 
332 1 32 22 0 
350 1 34 18 0 
351 1 34 20 0 
352 1 34 22 0 
2501 2 32.6557 19.8649 1.08619 
2502 2 33.5255 19.5421 1.77321 
2503 2 34.1156 19.0496 2.65355 
2504 2 34.184 18.5434 3.65442 
2505 2 33.9582 18.4378 4.53304 
3226 3 34.3623 19.5464 4.20219 
2683 2 35.0075 17.2655 2.72412 
2684 2 34.9575 17.5104 3.50899 
2685 2 34.7947 17.7169 4.51292 
3271 3 35.8101 17.914 3.772 
901 2 39.9931 19.5887 1.15156 
902 2 0.0786509 19.8643 2.2169 
903 2 39.7334 19.6963 3.07104 
904 2 39.6159 19.3784 4.00253 
2826 3 39.8625 20.245 4.24948 
370 1 36 18 0 
371 1 36 20 0 
372 1 36 22 0 
390 1 38 18 0 
391 1 38 20 0 
392 1 38 22 0 
2701 2 35.4376 19.7027 1.03193 
2702 2 35.5363 18.6932 1.22625 
2703 2 35.3772 18.1512 2.11762 
2704 2 35.1089 18.4623 3.11076 
2705 2 35.0184 18.7004 4.11399 
3276 3 35.0548 19.4556 3.02383 
3416 4 36.0238 19.3341 3.60641 
2706 2 34.8493 18.7529 5.00391 
905 2 -0.0725679 19.4632 5.23039 
13 1 0 24 0 
14 1 0 26 0 
15 1 0 28 0 
33 1 2 24 0 
34 1 2 26 0 
35 1 2 28 0 
53 1 4 24 0 
54 1 4 26 0 
55 1 4 28 0 
922 2 0.112407 24.0759 2.12039 
923 2 0.234221 23.7906 3.3268 
924 2 0.170548 23.7851 4.27215 
925 2 39.9975 24.0928 5.30533 
941 2 0.562869 28.1505 1.03781 
942 2 1.47988 27.663 1.74783 
943 2 1.66905 27.614 2.83029 
944 2 2.3909 27.6755 3.78265 
945 2 2.97021 27.6715 4.69802 
1121 2 4.79508 24.3005 1.03342 
1122 2 4.93088 24.7149 2.09747 
1123 2 4.58449 25.1468 2.94537 
1124 2 4.83747 25.5886 3.86261 
1125 2 4.92544 25.5631 4.99743 
1141 2 3.46076 27.7781 1.14814 
1142 2 3.45633 27.5514 2.10953 
1143 2 3.45752 27.4512 3.08743 
1144 2 3.8337 27.2338 3.95914 
1145 2 4.17014 27.0245 5.05783 
2831 3 1.07882 24.0387 4.39101 
2881 3 5.50452 24.6931 3.7031 
2836 3 1.97847 28.7922 4.1947 
2886 3 3.91689 28.2256 4.19665 
1346 2 5.04221 26.593 4.49343 
73 1 6 24 0 
74 1 6 26 0 
75 1 6 28 0 
93 1 8 24 0 
94 1 8 26 0 
95 1 8 28 0 
113 1 10 24 0 
114 1 10 26 0 
115 1 10 28 0 
1321 2 7.64603 24.3505 1.11666 
1322 2 6.77234 24.7929 1.83673 
1323 2 6.18513 25.2878 2.60336 
1324 2 6.05429 25.7866 3.53486 
1325 2 5.93302 25.9807 4.51464 
1341 2 8.38873 27.7364 1.09455 
1342 2 7.49223 27.8846 1.71005 
1343 2 6.95153 27.5088 2.61577 
1344 2 6.6623 27.0867 3.32596 
1345 2 5.73567 26.8961 3.86224 
2931 3 6.91112 25.2787 3.31582 
2936 3 6.78316 27.6173 4.2013 
3593 4 7.02656 28.9904 1.14323 
3302 4 11.4368 28.1974 3.68136 
133 1 12 24 0 
134 1 12 26 0 
135 1 12 28 0 
153 1 14 24 0 
154 1 14 26 0 
155 1 14 28 0 
173 1 16 24 0 
174 1 16 26 0 
175 1 16 28 0 
1521 2 12.5346 23.9956 1.04025 
1522 2 13.225 24.1863 1.90721 
1523 2 13.5237 24.5 3.12156 
1524 2 13.5323 24.53 4.1114 
1525 2 14.012 24.614 5.07947 
1541 2 11.7493 27.8838 1.13278 
1542 2 11.9069 27.8937 2.01965 
1543 2 12.0398 27.6822 2.91182 
1544 2 12.3588 27.7461 3.99804 
1545 2 12.5567 27.7271 4.89049 
1721 2 15.4593 24.4589 1.08921 
1722 2 14.8092 23.9996 1.86206 
1723 2 14.5266 24.0341 2.69909 
1724 2 14.4736 24.5109 3.48073 
1725 2 14.7038 24.8538 4.34886 
1741 2 15.6198 28.0039 1.14054 
1742 2 15.7818 27.428 2.18696 
1743 2 15.6109 26.7905 3.09661 
1744 2 15.0313 26.6227 3.8575 
1745 2 15.0847 26.3025 4.80525 
2981 3 14.2423 23.9599 4.45494 
3031 3 14.1649 23.5611 3.47419 
3581 4 15.6773 24.5538 3.02871 
3599 4 13.3853 28.2254 4.19448 
3036 3 14.6002 27.6105 4.09499 
1726 2 15.0525 25.0501 5.35617 
3081 3 20.3678 23.1455 4.67504 
193 1 18 24 0 
194 1 18 26 0 
195 1 18 28 0 
213 1 20 24 0 
214 1 20 26 0 
215 1 20 28 0 
233 1 22 24 0 
234 1 22 26 0 
235 1 22 28 0 
1921 2 19.7108 23.6792 1.06066 
1922 2 20.4541 23.494 1.92648 
1923 2 20.6006 23.3674 2.88718 
1924 2 20.1063 23.4921 3.81676 
1925 2 19.7448 23.9094 4.53165 
1941 2 19.4918 27.582 1.12374 
1942 2 19.6652 27.6169 2.45274 
1943 2 19.8135 27.1812 3.54733 
1944 2 19.7208 26.2367 4.18293 
1945 2 19.4487 25.5925 5.01317 
3086 3 20.1574 26.8832 4.79112 
253 1 24 24 0 
254 1 24 26 0 
255 1 24 28 0 
273 1 26 24 0 
274 1 26 26 0 
275 1 26 28 0 
293 1 28 24 0 
294 1 28 26 0 
295 1 28 28 0 
2121 2 24.4602 24.2174 1.08906 
2122 2 24.5154 25.1579 1.26038 
2123 2 24.4168 26.3004 1.93736 
2124 2 24.2959 26.0326 2.85398 
2125 2 24.4448 25.6112 3.86345 
2141 2 24.4845 27.7497 1.08154 
2142 2 25.0508 27.366 1.909 
2143 2 25.0994 26.7607 2.84567 
2144 2 25.1594 26.4204 3.77443 
2145 2 25.2419 26.1987 4.72638 
2321 2 27.8772 23.9404 1.10153 
2322 2 26.7736 24.2249 1.33495 
2323 2 25.657 24.6981 1.33382 
2324 2 25.1985 25.2001 2.15911 
2325 2 25.2123 25.4275 3.17133 
2341 2 27.8242 27.6913 1.11769 
2342 2 27.8902 28.2353 2.11194 
3131 3 24.2229 25.0102 2.88683 
3674 4 24.4696 24.2853 2.13478 
3181 3 25.6245 24.3302 2.45395 
3136 3 24.1009 26.7185 3.75748 
2126 2 24.6828 25.298 4.89098 
2326 2 25.5457 25.1814 4.27589 
3425 4 24.6473 24.506 3.84328 
313 1 30 24 0 
314 1 30 26 0 
315 1 30 28 0 
333 1 32 24 0 
334 1 32 26 0 
335 1 32 28 0 
353 1 34 24 0 
354 1 34 26 0 
355 1 34 28 0 
2521 2 32.1532 24.3696 1.11624 
2522 2 31.9606 24.314 2.17152 
2523 2 32.1763 23.962 3.08939 
2524 2 32.5893 23.7472 4.12243 
2541 2 31.6377 28.3426 1.05517 
3231 3 33.6411 23.5527 4.31241 
921 2 39.6967 24.1845 1.09192 
373 1 36 24 0 
374 1 36 26 0 
375 1 36 28 0 
393 1 38 24 0 
394 1 38 26 0 
395 1 38 28 0 
2721 2 36.5937 24.096 1.15699 
2722 2 36.5755 24.258 2.17288 
2723 2 36.476 24.2066 3.00789 
2724 2 36.1214 24.0665 4.21477 
2725 2 35.8667 24.0145 5.10157 
2741 2 35.6388 28.3306 1.03093 
3281 3 37.0671 24.6636 3.91297 
3641 4 39.0827 24.4272 3.07759 
16 1 0 30 0 
17 1 0 32 0 
18 1 0 34 0 
36 1 2 30 0 
37 1 2 32 0 
38 1 2 34 0 
56 1 4 30 0 
57 1 4 32 0 
58 1 4 34 0 
961 2 39.9323 32.3712 1.04219 
962 2 0.601381 32.8167 1.65013 
963 2 1.19771 33.2088 2.6201 
964 2 1.45857 33.2382 3.40769 
965 2 1.84658 33.5127 4.2521 
1161 2 4.11836 32.0988 1.06893 
1162 2 4.77213 32.9244 1.36291 
1163 2 5.36919 33.3642 2.15133 
2841 3 0.696708 32.9313 3.8493 
3501 4 5.29535 32.4378 2.80757 
983 2 0.535358 34.0585 1.73716 
984 2 0.608467 34.1387 2.79257 
1166 2 5.66538 33.5283 5.12097 
1165 2 5.57167 33.5603 4.16943 
1164 2 5.80239 33.7475 3.01188 
76 1 6 30 0 
77 1 6 32 0 
78 1 6 34 0 
96 1 8 30 0 
97 1 8 32 0 
98 1 8 34 0 
116 1 10 30 0 
117 1 10 32 0 
118 1 10 34 0 
1361 2 7.56033 32.255 1.09077 
1362 2 7.61318 33.2348 1.10219 
1363 2 7.41261 33.9943 1.89748 
1364 2 7.13474 33.6901 2.70366 
1365 2 6.85934 33.557 3.80973 
2941 3 6.29655 32.8233 2.33105 
3396 4 6.37168 33.973 1.96568 
1385 2 7.46509 34.3248 4.34918 
1366 2 6.66399 33.8105 4.78034 
1386 2 7.59123 33.9897 5.3333 
136 1 12 30 0 
137 1 12 32 0 
138 1 12 34 0 
156 1 14 30 0 
157 1 14 32 0 
158 1 14 34 0 
176 1 16 30 0 
177 1 16 32 0 
178 1 16 34 0 
1561 2 11.6679 31.9417 1.07619 
1562 2 12.1319 32.9059 1.38331 
1563 2 12.568 33.6247 1.8371 
1564 2 13.1245 33.9176 2.52821 
1565 2 13.3714 33.7797 3.74858 
1761 2 15.7938 32.2567 1.10101 
1762 2 15.7135 32.7731 2.23032 
1763 2 15.39 33.39 2.95061 
1764 2 14.9339 33.7057 3.64585 
1765 2 14.5548 33.4179 4.59664 
2986 3 12.3289 28.6705 4.18121 
2991 3 13.687 34.4248 2.30454 
3041 3 14.0496 33.498 2.99145 
1785 2 15.429 34.3259 4.44456 
1566 2 13.451 33.9071 4.87347 
1784 2 15.7287 34.341 3.32667 
196 1 18 30 0 
197 1 18 32 0 
198 1 18 34 0 
216 1 20 30 0 
217 1 20 32 0 
218 1 20 34 0 
236 1 22 30 0 
237 1 22 32 0 
238 1 22 34 0 
1961 2 20.1594 31.6952 1.0937 
1962 2 21.1891 31.8703 1.29338 
1963 2 21.7093 31.9959 1.99875 
1964 2 22.1869 32.0658 2.84542 
1965 2 22.0458 32.0503 4.00842 
3091 3 21.5855 31.0492 2.82562 
3574 4 22.4086 32.1171 1.15544 
3741 4 21.229 31.4037 3.88021 
2163 2 22.8294 31.1795 2.70953 
2164 2 22.385 30.89 3.47239 
2165 2 22.195 30.9837 4.41823 
3141 3 22.068 29.9736 3.00867 
1966 2 21.6321 31.7146 5.00384 
2343 2 28.2573 28.3634 2.97173 
256 1 24 30 0 
257 1 24 32 0 
258 1 24 34 0 
276 1 26 30 0 
277 1 26 32 0 
278 1 26 34 0 
296 1 28 30 0 
297 1 28 32 0 
298 1 28 34 0 
2161 2 23.4832 32.3898 1.12286 
2162 2 23.2281 31.9225 2.02379 
2361 2 28.5038 31.5786 0.99599 
2344 2 28.9469 28.4162 3.77658 
2345 2 29.5492 28.7899 4.78733 
3810 6 29.2506 29.1752 2.09609 
2542 2 31.6589 29.1436 1.60382 
2543 2 31.7267 30.0705 2.25774 
2544 2 31.5785 30.5282 3.363 
2545 2 31.1972 30.3673 4.33488 
2362 2 29.3464 30.9583 1.32444 
2363 2 29.6015 30.4938 1.98386 
2364 2 29.6882 30.2667 2.88572 
2365 2 29.4942 30.1199 4.12659 
3186 3 29.4494 29.1489 3.25621 
316 1 30 30 0 
317 1 30 32 0 
318 1 30 34 0 
336 1 32 30 0 
337 1 32 32 0 
338 1 32 34 0 
356 1 34 30 0 
357 1 34 32 0 
358 1 34 34 0 
2561 2 31.7959 31.6975 0.991267 
2562 2 31.1208 31.3813 1.15135 
2563 2 30.3053 31.5268 1.84793 
2564 2 29.6407 31.3577 2.49486 
2565 2 29.5001 31.1362 3.56828 
3191 3 30.6119 29.7686 2.67046 
3236 3 31.4054 31.6511 3.00288 
3241 3 30.3026 32.0624 2.9533 
3525 4 30.7928 30.0289 1.4901 
3556 4 31.3456 31.0358 2.12151 
3707 4 30.5579 30.9016 2.77362 
3711 4 30.3918 29.8892 3.64934 
3780 4 31.7903 30.4404 1.18913 
2546 2 30.3826 29.7522 4.94352 
2366 2 29.2665 30.0542 5.02652 
2566 2 30.04 30.8794 4.71836 
3469 4 30.6518 31.1883 3.80938 
2742 2 35.9782 29.0703 1.60912 
2743 2 36.1341 29.4665 2.63882 
2744 2 35.815 29.8239 3.83976 
2745 2 35.5443 29.871 4.76272 
376 1 36 30 0 
377 1 36 32 0 
378 1 36 34 0 
396 1 38 30 0 
397 1 38 32 0 
398 1 38 34 0 
2761 2 36.5201 31.6541 1.09492 
2762 2 36.1383 31.188 1.88649 
2763 2 35.8429 30.7305 2.74705 
2764 2 36.3816 30.7809 3.71388 
2765 2 36.6286 30.3954 4.60891 
3286 3 35.4051 30.537 3.81371 
3291 3 36.1182 31.7706 3.73446 
3531 4 35.7641 33.0638 1.28162 
19 1 0 36 0 
20 1 0 38 0 
39 1 2 36 0 
40 1 2 38 0 
59 1 4 36 0 
60 1 4 38 0 
981 2 0.45701 35.8335 1.16236 
982 2 0.293099 35.0193 1.28646 
985 2 0.781228 34.1234 3.68602 
1181 2 3.30472 35.6627 1.12591 
1182 2 2.27481 35.4185 1.30841 
1183 2 1.67186 35.3066 2.26564 
1184 2 1.53573 35.0763 3.16756 
1185 2 1.64595 34.5713 4.12317 
2846 3 0.258809 35.0538 3.3929 
2896 3 1.69815 34.1432 2.85737 
3672 4 0.545216 35.3644 2.23769 
3713 4 1.39613 34.6691 1.09061 
986 2 0.724087 34.2417 4.52488 
1186 2 1.45043 34.8516 5.18426 
2891 3 6.14009 34.6774 3.15128 
79 1 6 36 0 
80 1 6 38 0 
99 1 8 36 0 
100 1 8 38 0 
119 1 10 36 0 
120 1 10 38 0 
1381 2 7.60415 35.6314 1.06581 
1382 2 7.46509 35.2679 2.02079 
1383 2 7.17887 34.8082 2.84842 
1384 2 7.15822 34.5249 3.53113 
2946 3 6.59854 34.7725 4.13057 
3623 4 14.8523 34.2755 2.71452 
139 1 12 36 0 
140 1 12 38 0 
159 1 14 36 0 
160 1 14 38 0 
179 1 16 36 0 
180 1 16 38 0 
1581 2 12.0535 35.7964 1.15894 
1582 2 12.5418 35.1151 1.81555 
1583 2 12.5683 34.8309 2.77049 
1584 2 12.8889 34.7894 3.77295 
1585 2 13.3487 34.9072 4.71881 
1781 2 15.6068 35.4364 1.01839 
1782 2 16.1525 34.5739 1.38575 
1783 2 16.0784 34.3631 2.4991 
2996 3 13.6553 34.649 3.33125 
3046 3 15.2786 35.2623 3.61086 
3778 4 14.2751 34.4579 4.30804 
1586 2 14.1407 35.0287 5.274 
1801 2 20.0744 0.344676 1.15447 
1802 2 20.1356 0.486913 2.4051 
1803 2 20.1746 0.343786 3.43747 
1804 2 20.1161 0.163665 4.3969 
1805 2 20.295 0.190707 5.51588 
3051 3 21.0825 0.158181 3.70194 
199 1 18 36 0 
200 1 18 38 0 
219 1 20 36 0 
220 1 20 38 0 
239 1 22 36 0 
240 1 22 38 0 
1981 2 19.9683 36.3793 1.08432 
1982 2 20.0147 35.7983 1.88493 
1983 2 20.2374 35.2319 2.83468 
1984 2 20.3798 35.2326 3.81174 
1985 2 20.4654 35.2299 4.82447 
3096 3 20.9654 36.2113 3.78834 
3417 4 19.8261 34.8132 1.4379 
2001 2 23.7309 0.0286096 1.12129 
2002 2 23.8734 39.6292 2.12866 
2003 2 23.8859 39.0482 2.79115 
2004 2 24.0921 38.3669 3.45983 
2005 2 24.0835 38.343 4.52144 
3101 3 24.1205 37.5356 2.87942 
259 1 24 36 0 
260 1 24 38 0 
279 1 26 36 0 
280 1 26 38 0 
299 1 28 36 0 
300 1 28 38 0 
2181 2 23.8533 36.4984 1.11395 
2182 2 24.2598 36.604 2.20592 
2183 2 24.4963 36.5687 3.24625 
2184 2 24.2567 36.9253 4.13199 
2185 2 23.9117 37.3606 5.02103 
2381 2 28.5314 36.0549 1.14019 
3146 3 23.4755 37.4617 3.77973 
3763 4 23.4965 38.6798 1.20709 
2401 2 32.5364 39.635 1.05801 
2402 2 33.3664 39.6939 1.62795 
2403 2 34.0374 39.6223 2.53037 
2404 2 34.1413 39.4257 3.39735 
2405 2 34.0381 38.9117 4.3497 
2382 2 29.478 36.4335 1.33189 
2383 2 29.4665 36.488 2.35329 
2384 2 29.5205 36.5778 3.26925 
2385 2 29.4579 36.6282 4.29073 
3196 3 28.9915 35.6272 3.6738 
319 1 30 36 0 
320 1 30 38 0 
339 1 32 36 0 
340 1 32 38 0 
359 1 34 36 0 
360 1 34 38 0 
2581 2 31.5618 36.3664 1.04771 
2582 2 30.661 35.8706 1.3386 
2583 2 29.8892 35.5415 2.05134 
2584 2 29.9325 35.6696 2.88728 
2585 2 30.1377 35.4752 3.93345 
3246 3 30.5479 36.4846 2.86127 
2586 2 30.0572 35.3961 4.90972 
3201 3 34.0065 38.691 2.8442 
2601 2 36.0546 39.4127 1.07472 
2602 2 35.5178 39.5182 2.12528 
2603 2 35.1965 39.598 3.13079 
2604 2 34.9768 39.4549 3.99666 
2605 2 34.8998 39.6745 4.90921 
3251 3 34.6986 38.4177 3.65495 
379 1 36 36 0 
380 1 36 38 0 
399 1 38 36 0 
400 1 38 38 0 
2781 2 36.0205 35.9967 1.10475 
2782 2 35.8903 36.7835 2.00014 
2783 2 35.9738 37.4794 2.72729 
2784 2 35.7578 38.189 3.60959 
2785 2 35.2406 38.5061 4.63524 
3296 3 35.0716 38.5692 2.62239 
806 2 0.346148 0.472963 6.00812 
807 2 0.559688 0.541108 7.11264 
808 2 0.886556 0.512812 8.0982 
809 2 1.09087 0.542965 9.21315 
810 2 0.721719 0.317696 10.3056 
826 2 0.533316 3.6747 6.14001 
827 2 0.375151 3.39162 7.2022 
828 2 0.58067 3.01983 8.334 
829 2 1.09325 2.96666 9.3925 
830 2 1.07817 3.49526 10.3157 
1006 2 3.2686 1.75008 5.46271 
1007 2 3.02722 1.80134 6.35315 
1008 2 2.90015 1.77299 7.44966 
1009 2 3.03121 1.83295 8.45198 
1010 2 3.26449 1.64317 9.40509 
1026 2 4.38899 1.53382 5.22387 
1027 2 4.12864 1.81313 6.15978 
1028 2 3.87212 2.27721 7.15092 
1029 2 3.39864 2.73455 8.18936 
1030 2 3.33574 2.78349 9.07363 
2802 3 0.354086 1.69576 7.88249 
2807 3 1.56554 2.93368 7.58977 
2852 3 3.53332 1.27288 7.38112 
2857 3 4.52388 2.40405 7.83529 
3667 4 4.10994 2.01718 8.84809 
1011 2 3.68033 1.68515 10.3058 
1031 2 3.30119 2.99639 9.99168 
1206 2 7.74699 1.21246 6.15906 
1207 2 8.11158 1.26946 7.07074 
1208 2 8.81495 1.18115 7.59489 
1209 2 9.70862 1.37163 8.16283 
1210 2 9.74212 1.34095 9.04509 
1226 2 8.23957 2.16604 5.70515 
1227 2 8.37786 2.35827 6.61175 
1228 2 8.94195 2.21349 7.46842 
1229 2 8.83285 2.01248 8.30542 
1230 2 8.92565 2.21958 9.34272 
2902 3 8.01786 1.40362 8.07156 
2907 3 9.83628 2.03038 7.15345 
3419 4 11.4596 3.32093 7.13861 
3679 4 7.37946 2.05923 6.9197 
1430 2 11.295 2.96899 9.4083 
1211 2 9.63077 1.32705 9.83683 
1406 2 12.0281 0.00601267 5.9981 
1407 2 11.9191 0.174578 7.16408 
1408 2 11.5946 0.216273 8.08947 
1409 2 11.4933 0.362643 9.05076 
1410 2 11.6924 0.614225 10.1898 
1426 2 12.5562 4.23059 6.10558 
1427 2 12.2703 4.11021 7.04292 
1428 2 11.9319 3.68328 8.01919 
1429 2 11.5771 3.3199 8.63087 
1610 2 16.8468 3.95094 8.95424 
1626 2 16.6335 4.45535 5.33346 
1627 2 16.7332 4.643 6.28999 
2952 3 11.6727 1.04198 7.90708 
2957 3 12.9193 3.76524 8.25952 
3002 3 16.2834 4.30013 7.38099 
3370 4 16.126 5.53836 6.96462 
3451 4 12.9369 0.450141 7.96925 
1611 2 16.8565 3.991 9.91531 
1608 2 17.0372 3.68137 7.26219 
1609 2 17.0199 3.94732 8.18194 
1607 2 17.442 3.9191 6.21955 
1628 2 17.0111 4.97396 6.8915 
1629 2 17.2126 4.88032 7.62556 
1630 2 17.4009 5.00384 8.54584 