ITEM: TIMESTEP
101000
ITEM: NUMBER OF ATOMS
750
ITEM: BOX BOUNDS pp pp ff
0 20
0 20
0 62
ITEM: ATOMS id type q x y z 
2509 4 1 0.172392 20.0015 2.11388 
3185 4 1 19.3542 4.8521 2.72418 
2574 4 1 2.61754 1.49693 2.03782 
3177 4 1 4.12535 1.41865 2.68282 
3070 4 1 3.86583 0.0863549 2.27183 
2690 4 1 0.772007 19.9054 2.49433 
2503 4 1 19.6102 0.915981 3.13877 
2662 4 1 2.49769 19.161 3.66963 
2595 4 1 1.45549 0.279079 4.73226 
3095 4 1 5.67317 18.3359 4.39421 
2789 4 1 8.23627 19.5324 1.5494 
3121 4 1 7.38389 1.29451 2.27465 
2603 4 1 10.8652 1.84426 4.39924 
3120 4 1 9.18659 1.74228 1.82662 
2994 4 1 9.8071 0.894009 2.65111 
2813 4 1 8.95982 0.653455 1.06335 
2575 4 1 7.73733 4.55436 2.32593 
2814 4 1 9.67577 2.11403 1.85969 
2762 4 1 9.30748 0.128959 1.22327 
3064 4 1 9.67788 1.05708 2.12266 
3133 4 1 7.50692 11.5975 1.16607 
2684 4 1 10.6839 1.50198 2.80636 
2772 4 1 9.87631 1.7874 3.86428 
2857 4 1 10.0121 3.26688 1.67707 
2713 4 1 8.97807 2.7296 1.54884 
2906 4 1 7.26599 3.29539 2.02891 
2953 4 1 8.86958 2.32406 3.77328 
3030 4 1 8.35586 3.22695 2.63212 
3045 4 1 8.43394 1.43242 3.88793 
2481 4 1 8.61024 18.4077 4.6922 
3006 4 1 10.9227 2.01834 1.19136 
3107 4 1 10.1566 0.513211 3.37095 
3058 4 1 8.86738 4.37861 4.03465 
2697 4 1 11.8675 1.01531 1.83239 
2999 4 1 10.9148 0.995948 2.76883 
3013 4 1 13.3354 3.17488 0.97263 
3082 4 1 12.8091 1.4216 2.24886 
2787 4 1 12.6958 2.72398 1.83281 
3128 4 1 10.7152 2.68929 1.30295 
3152 4 1 11.7204 2.1988 3.48021 
2868 4 1 10.6901 2.94406 3.20151 
2660 4 1 12.353 0.656737 1.15786 
2744 4 1 13.4461 2.18744 1.23827 
3143 4 1 11.2641 0.950141 1.22905 
2612 4 1 12.5319 2.48266 1.10856 
2648 4 1 11.8989 0.627931 3.18191 
2655 4 1 12.6759 1.38503 3.3587 
2993 4 1 12.4696 0.296933 1.67497 
2677 4 1 13.0267 19.9643 2.32759 
3038 4 1 13.7012 2.8506 3.97406 
2877 4 1 12.1968 1.12576 2.27486 
2652 4 1 12.1936 2.66282 2.09245 
2500 4 1 13.6381 1.76123 1.3987 
3135 4 1 13.5863 1.78424 1.92059 
2460 4 1 11.6082 3.25803 1.62895 
2963 4 1 13.0002 2.43353 2.49413 
2850 4 1 10.0317 2.49273 1.65906 
2463 4 1 13.1677 4.55557 3.33379 
2541 4 1 11.8397 2.31313 1.11787 
3053 4 1 10.3467 1.31817 1.73948 
3102 4 1 11.0193 1.11271 1.8993 
2959 4 1 9.64109 19.1519 3.27972 
2707 4 1 11.866 1.20022 4.0807 
3175 4 1 13.6186 2.35692 2.19391 
2611 4 1 15.096 2.44734 1.70056 
2838 4 1 15.0104 1.51154 1.21752 
2901 4 1 16.0537 2.33051 1.12982 
3079 4 1 14.3076 1.78565 2.82549 
2716 4 1 13.6822 0.740355 2.89277 
2641 4 1 16.8279 18.5006 1.8728 
3033 4 1 14.2413 0.929904 2.04609 
3101 4 1 14.9666 0.528351 1.00998 
2768 4 1 15.4105 1.19505 1.16608 
2795 4 1 12.4778 1.52063 1.20168 
2765 4 1 14.33 1.6449 1.6082 
3179 4 1 14.3197 1.30208 3.59169 
2702 4 1 16.4836 3.07306 1.23424 
3086 4 1 13.9497 1.00807 1.29742 
2725 4 1 14.0496 2.69936 3.28214 
3014 4 1 15.6586 1.93814 2.46506 
2931 4 1 14.9618 19.8643 0.976836 
3051 4 1 14.2857 0.249268 1.73671 
2724 4 1 15.1833 3.13138 2.56796 
3103 4 1 15.5031 0.570509 2.64732 
3081 4 1 15.3059 1.66744 4.29702 
2669 4 1 15.1714 1.22244 1.90483 
2946 4 1 16.1245 0.825611 2.25749 
2875 4 1 14.862 1.8008 2.02442 
2664 4 1 16.2935 2.41599 1.59347 
2856 4 1 15.1879 0.207579 3.47542 
2920 4 1 15.6012 0.654797 1.30939 
3122 4 1 16.3517 1.27928 1.58207 
2774 4 1 14.7094 2.66472 3.28961 
2531 4 1 14.0277 3.05838 3.59463 
2816 4 1 14.3019 19.6251 1.58874 
2723 4 1 16.1007 0.0428127 3.87072 
2506 4 1 17.1432 1.42106 1.17085 
2968 4 1 16.3773 1.28646 2.56736 
2958 4 1 16.7564 0.186137 3.1907 
2585 4 1 18.3965 0.587293 2.44025 
3049 4 1 17.8842 3.31967 1.3372 
2918 4 1 17.3837 3.19418 2.9364 
2622 4 1 16.7584 0.807067 1.81667 
2692 4 1 18.1865 2.52932 1.25876 
2582 4 1 17.6929 2.27345 1.17115 
3181 4 1 19.3424 18.5948 2.81355 
2878 4 1 17.6083 3.03548 2.3933 
3096 4 1 19.8323 0.582125 1.42302 
2992 4 1 15.8012 1.5566 3.95425 
2711 4 1 17.5328 19.9977 1.95281 
2455 4 1 19.1632 19.5068 1.15915 
2530 4 1 17.885 3.19591 3.84334 
3173 4 1 17.2093 0.713969 3.30675 
2607 4 1 4.2438 6.477 0.982938 
2516 4 1 18.3614 5.08322 1.5026 
3004 4 1 7.18495 8.82108 1.63057 
3089 4 1 7.23172 0.237751 2.83692 
2462 4 1 6.0681 3.69673 1.59849 
2876 4 1 11.3441 4.00476 2.60649 
3090 4 1 9.39221 3.94262 2.21865 
2923 4 1 7.57459 3.82784 1.10982 
2948 4 1 10.2604 5.64142 2.72588 
2770 4 1 12.1592 8.28447 3.4183 
3141 4 1 5.88611 6.0499 2.78813 
2826 4 1 10.0171 3.90357 3.01313 
3052 4 1 13.942 3.68933 4.92965 
2549 4 1 11.7398 3.04363 3.56062 
2998 4 1 12.5069 3.18389 2.0312 
3009 4 1 13.1622 3.43465 2.38435 
2631 4 1 12.7729 4.81347 1.31928 
2760 4 1 13.7324 3.01147 2.10644 
2899 4 1 16.1969 3.89635 1.79687 
3172 4 1 12.3038 7.32924 2.24634 
2797 4 1 14.9517 3.70203 2.39732 
2793 4 1 14.9807 3.93025 3.36477 
2776 4 1 15.4817 3.74456 0.979694 
2952 4 1 15.0871 1.24965 4.50809 
2656 4 1 15.8666 2.94748 2.08764 
2964 4 1 10.2402 3.50873 4.18869 
2973 4 1 15.7144 4.41899 1.91653 
2567 4 1 15.4727 3.67087 2.49095 
2841 4 1 18.2363 3.07705 2.27369 
3031 4 1 16.839 2.04017 1.97406 
2794 4 1 17.5565 3.98176 2.55636 
3061 4 1 1.31451 10.167 2.79947 
2498 4 1 19.8504 10.5395 1.2426 
2524 4 1 4.15103 8.62485 1.15992 
3151 4 1 4.01447 10.3101 3.09481 
2537 4 1 3.661 10.2507 4.65701 
2658 4 1 2.36182 3.78089 1.54454 
3040 4 1 8.4509 9.39536 2.68936 
2708 4 1 7.8256 11.039 1.52306 
2492 4 1 4.93701 11.1348 1.98421 
2715 4 1 9.2721 9.50066 1.09793 
2577 4 1 17.3147 10.2664 6.99861 
2831 4 1 19.7671 5.34983 1.15355 
3012 4 1 0.473683 10.858 1.96605 
2510 4 1 0.632267 11.299 2.45546 
3184 4 1 3.692 11.1564 2.777 
2539 4 1 2.06376 10.9266 3.72983 
2487 4 1 2.10246 13.2469 1.59043 
2592 4 1 2.04503 12.2857 2.6221 
2758 4 1 1.75157 14.4229 3.1297 
2703 4 1 2.72174 11.07 2.75839 
2576 4 1 2.5101 12.0865 1.12897 
2843 4 1 0.948504 11.6857 2.27861 
2591 4 1 2.72928 13.2155 1.59236 
2911 4 1 1.00172 13.2257 1.68473 
2865 4 1 1.82598 11.6253 2.38888 
2928 4 1 3.07303 11.344 2.12383 
2743 4 1 19.5081 10.1103 3.67942 
2995 4 1 0.655485 13.7226 2.63297 
2461 4 1 0.691289 15.0327 2.6252 
2815 4 1 1.06069 9.41453 3.00363 
2579 4 1 1.4675 14.0721 1.70522 
2573 4 1 1.91823 13.1452 2.71207 
3157 4 1 0.917583 12.1705 2.1281 
2796 4 1 1.04329 12.5056 3.80845 
2637 4 1 3.12876 12.8441 4.10546 
2833 4 1 3.23806 12.0857 2.70144 
2644 4 1 2.08826 10.9469 1.60932 
2619 4 1 4.42664 9.51857 1.45434 
2640 4 1 3.31515 12.0084 1.03827 
2714 4 1 2.74746 10.3342 2.81625 
2630 4 1 4.24716 13.4106 1.37958 
3005 4 1 4.00986 12.9152 3.00296 
3188 4 1 4.82268 13.1227 3.68274 
3171 4 1 8.94203 10.7913 2.13585 
3055 4 1 9.55974 9.54982 1.52197 
3136 4 1 8.71219 13.1592 2.09591 
3066 4 1 8.61583 11.0054 1.09876 
2930 4 1 10.4954 12.7016 1.8379 
2722 4 1 8.7791 12.305 1.91791 
2565 4 1 11.236 11.9588 2.43968 
2499 4 1 10.2867 12.6312 1.08567 
2522 4 1 8.94007 13.4472 3.50813 
2840 4 1 9.12417 13.4798 1.16983 
3093 4 1 9.68776 13.3455 3.40673 
2495 4 1 10.4181 13.2375 4.61955 
3085 4 1 9.73438 11.0562 3.11814 
2726 4 1 10.7419 13.3696 4.09477 
2908 4 1 11.3426 13.5527 3.90784 
2828 4 1 11.0771 13.2151 1.45605 
2778 4 1 10.227 11.6654 1.83036 
2544 4 1 10.7316 13.9444 1.21464 
2753 4 1 8.76389 13.0069 4.33309 
2842 4 1 11.3592 13.8497 2.64916 
2676 4 1 10.9959 12.8642 2.48699 
3091 4 1 11.868 11.3226 1.73843 
2588 4 1 11.718 12.4766 1.18536 
2751 4 1 12.5249 12.6912 1.84168 
2785 4 1 10.5818 14.6117 4.12502 
2719 4 1 10.5274 14.1968 1.66852 
2515 4 1 15.867 12.7465 1.59623 
2738 4 1 12.2789 14.026 3.45147 
2534 4 1 15.5102 13.5612 1.61596 
2645 4 1 15.2837 14.1944 1.00426 
2812 4 1 15.7839 11.999 2.60652 
2916 4 1 2.66941 11.7681 5.39564 
3163 4 1 0.53699 11.9665 3.68033 
2910 4 1 2.56155 10.7817 1.15572 
2844 4 1 3.33576 14.3058 1.73632 
2470 4 1 3.20334 13.6408 1.08886 
2545 4 1 1.23217 12.8138 1.15378 
2965 4 1 2.41345 14.0578 3.04925 
2511 4 1 2.23001 15.8636 2.7149 
2871 4 1 3.11856 15.1252 2.14359 
3024 4 1 3.75553 14.763 2.75846 
2651 4 1 3.5045 16.3758 1.07218 
2880 4 1 3.05817 15.653 2.73826 
3174 4 1 2.85543 13.4619 2.21878 
2634 4 1 3.03337 15.7108 1.29615 
2745 4 1 2.8296 16.3347 1.5784 
2818 4 1 1.89808 14.2704 2.52352 
3142 4 1 1.07824 17.7085 3.95076 
3032 4 1 3.13691 15.7797 4.16036 
3125 4 1 0.943577 14.634 1.55714 
2938 4 1 2.48445 17.2725 2.86293 
3166 4 1 19.9343 16.0046 3.7116 
2912 4 1 3.24353 14.7252 1.1427 
2832 4 1 3.36735 16.304 2.4039 
3161 4 1 3.0912 11.7833 4.67008 
2670 4 1 1.0792 16.0369 2.68864 
2900 4 1 2.09029 15.1373 0.978148 
2990 4 1 2.6534 16.0001 3.07199 
2798 4 1 0.620141 14.9765 3.3212 
3193 4 1 2.9258 14.0632 3.50836 
3075 4 1 2.47949 13.6521 3.43864 
3111 4 1 2.01181 14.8869 2.88356 
2526 4 1 4.13917 13.9 3.19815 
2805 4 1 6.40661 14.6386 2.92566 
2484 4 1 3.41247 13.7922 1.99139 
2584 4 1 3.79445 14.0219 1.61262 
3134 4 1 3.5846 13.4472 2.96003 
2957 4 1 6.44644 13.9527 1.46219 
2732 4 1 4.97458 15.9062 2.97365 
2771 4 1 3.6964 14.3663 1.08249 
3190 4 1 4.30211 14.6236 2.60161 
2740 4 1 5.63527 16.2479 2.02422 
3039 4 1 5.05895 13.7746 1.07942 
3150 4 1 5.16143 15.4435 1.34332 
3118 4 1 5.88114 15.6594 2.16657 
3003 4 1 4.99039 15.66 2.32231 
3078 4 1 5.82955 15.7487 1.6007 
3028 4 1 4.26966 15.5556 1.37261 
2935 4 1 5.67741 14.5953 1.8624 
2981 4 1 4.25911 13.3931 2.24686 
2459 4 1 5.85794 14.4151 3.00918 
2513 4 1 4.5517 16.484 1.00764 
3029 4 1 4.91652 15.0004 3.45583 
2620 4 1 6.93157 14.8593 1.62761 
2649 4 1 4.60437 14.3153 1.36271 
3027 4 1 4.78556 16.7711 1.65509 
2889 4 1 5.83837 14.9686 3.80565 
2643 4 1 4.19631 16.5341 3.61042 
2618 4 1 5.50637 13.411 3.19485 
3164 4 1 5.86579 13.92 3.146 
2465 4 1 3.78429 16.2442 3.25893 
3189 4 1 6.56746 15.7508 1.91467 
2873 4 1 5.0787 17.5285 1.0994 
3054 4 1 4.45726 16.2908 3.0294 
2517 4 1 5.47007 15.4263 3.85165 
2569 4 1 3.83187 14.4304 3.58946 
2892 4 1 5.41178 16.3031 4.95708 
2632 4 1 7.8578 14.9792 2.01835 
2991 4 1 9.34053 13.9993 2.56839 
2886 4 1 7.32002 14.3487 2.6034 
2855 4 1 6.58375 13.312 1.86362 
3048 4 1 8.43599 14.8817 2.31876 
3140 4 1 9.00307 13.5654 2.42714 
2701 4 1 8.14535 15.8986 1.07618 
2597 4 1 7.71506 15.8675 1.43008 
2852 4 1 8.05466 14.5325 3.9235 
2659 4 1 7.0208 13.6365 2.66781 
2533 4 1 7.17567 14.2442 3.64223 
2602 4 1 9.42735 14.3831 1.71735 
2803 4 1 7.07242 16.752 1.17133 
2536 4 1 9.34471 12.5578 1.17973 
2693 4 1 9.46848 14.4522 2.24013 
2560 4 1 8.43194 15.6439 2.62179 
2788 4 1 7.24738 15.8505 2.48081 
2996 4 1 8.89123 15.4409 2.29827 
2966 4 1 8.57623 14.5322 2.77341 
2874 4 1 10.0911 14.69 2.85633 
2661 4 1 10.4131 13.7934 2.37094 
2674 4 1 7.37531 17.0117 1.70994 
2982 4 1 9.54505 16.3339 2.53493 
3187 4 1 6.89688 14.8594 2.8039 
2851 4 1 9.71757 15.0025 1.23933 
2891 4 1 7.47086 15.7199 1.9884 
2689 4 1 9.01435 15.2587 1.35063 
2504 4 1 8.13119 16.3837 2.43157 
2926 4 1 8.72743 16.363 1.44978 
2467 4 1 7.1266 17.4967 1.80731 
3156 4 1 7.11271 16.4428 2.49958 
3025 4 1 7.32277 17.4487 4.38614 
2933 4 1 9.16752 12.9547 3.40856 
3139 4 1 6.17302 13.7018 3.93144 
3035 4 1 9.79716 10.8925 3.61232 
2898 4 1 6.61551 17.0106 3.83789 
2552 4 1 12.7444 13.427 2.00672 
2571 4 1 14.355 14.1096 2.71125 
2654 4 1 10.0928 15.2807 1.52027 
2525 4 1 11.8099 15.2761 2.76211 
3100 4 1 11.8535 14.476 2.00695 
2806 4 1 11.9923 14.6116 1.15273 
3167 4 1 10.7912 15.1662 2.19217 
3130 4 1 11.971 16.3348 2.76378 
2786 4 1 12.4025 14.3123 1.76094 
2473 4 1 11.811 13.7022 3.60299 
2862 4 1 13.0969 16.3924 1.2067 
2950 4 1 11.0371 15.0989 1.32175 
2527 4 1 12.7078 15.7198 2.39828 
2811 4 1 10.9628 14.4876 1.06933 
2623 4 1 12.0327 16.5776 1.96625 
3047 4 1 12.4525 14.8498 3.2128 
3198 4 1 13.0833 16.385 2.84332 
2502 4 1 10.6912 14.5262 3.01247 
2535 4 1 13.0395 15.0152 1.76172 
2687 4 1 10.3838 16.284 1.10785 
2596 4 1 12.6944 15.2619 1.34347 
3116 4 1 12.1836 16.1033 4.73236 
3008 4 1 14.3085 16.2398 1.74688 
2969 4 1 14.9516 15.6767 1.36101 
2543 4 1 10.9956 16.0707 2.74311 
3138 4 1 9.32176 15.6176 1.09012 
2749 4 1 14.8881 15.1112 1.55482 
3165 4 1 14.1854 13.4308 1.52085 
2570 4 1 15.9353 17.0252 1.78197 
3034 4 1 15.1449 17.0266 1.87545 
2508 4 1 0.240258 13.9001 1.1846 
2590 4 1 0.898181 17.1332 4.706 
2550 4 1 18.7525 13.1568 1.4614 
2905 4 1 2.0948 19.5504 1.25867 
2663 4 1 1.81035 19.75 3.16288 
2583 4 1 1.99562 0.773313 1.10977 
3159 4 1 1.96676 18.7172 1.30755 
2673 4 1 2.1272 19.8652 1.9772 
2974 4 1 3.1255 18.901 2.6442 
2736 4 1 1.69833 16.4395 2.92716 
2903 4 1 2.79512 18.3012 1.06147 
2947 4 1 3.23884 17.5835 2.80821 
2769 4 1 0.881353 17.0396 1.18408 
2784 4 1 3.77012 17.1739 4.18045 
2518 4 1 0.622142 18.7101 2.16291 
2887 4 1 2.80099 16.8953 1.33818 
2909 4 1 1.94805 17.3093 1.92705 
2872 4 1 2.28263 16.8978 1.14783 
3062 4 1 3.28752 18.8087 1.38227 
2955 4 1 0.0277584 17.7122 1.3591 
2764 4 1 1.20749 17.8576 3.00983 
2494 4 1 3.66418 17.8641 2.25399 
2468 4 1 1.79785 15.2079 2.00903 
2657 4 1 1.42516 18.2708 3.60183 
2932 4 1 0.455796 18.3975 2.93668 
3083 4 1 1.65196 16.6529 1.52347 
2650 4 1 0.732132 19.2815 1.84915 
2727 4 1 1.37557 17.8411 1.43042 
2731 4 1 3.63055 18.2064 4.22119 
3099 4 1 2.85475 19.633 2.51201 
3123 4 1 3.71286 17.1511 3.57479 
2863 4 1 0.333127 19.2951 2.64994 
2755 4 1 7.14023 19.2221 2.71603 
3000 4 1 3.96706 16.8003 2.36747 
2564 4 1 5.55029 18.253 1.37613 
2599 4 1 6.08922 17.3763 2.05238 
2665 4 1 4.19175 18.0186 1.07072 
2561 4 1 2.85937 19.3791 1.5711 
2934 4 1 4.05149 18.8482 2.46868 
2735 4 1 6.82864 18.9376 1.1786 
2482 4 1 4.75726 19.4427 1.43145 
2924 4 1 6.06415 19.564 1.16479 
2766 4 1 6.05546 15.9919 1.05264 
2943 4 1 6.75774 19.211 1.60227 
2746 4 1 4.45268 0.696995 1.54987 
2685 4 1 4.38099 19.0626 1.48845 
2521 4 1 3.84616 19.3778 1.97003 
2927 4 1 3.55498 18.8696 2.11095 
2881 4 1 6.82063 17.4798 3.06547 
2989 4 1 5.38993 18.1873 3.25239 
2580 4 1 6.21728 18.8353 1.77675 
2890 4 1 4.97595 18.2437 1.94392 
2556 4 1 6.19532 18.7681 2.30603 
3023 4 1 5.05771 19.9173 4.30989 
2566 4 1 4.0654 18.0143 1.98172 
2847 4 1 5.71713 17.3881 2.86666 
2767 4 1 6.11609 17.317 1.08347 
2829 4 1 6.14144 19.4881 2.05632 
3056 4 1 5.28279 19.0251 2.51922 
3200 4 1 6.39787 16.8185 2.1646 
2609 4 1 4.7085 17.8579 2.51948 
2594 4 1 5.19437 16.5221 2.90072 
2700 4 1 3.94148 17.6694 3.40329 
2507 4 1 4.21739 17.2528 2.85272 
3160 4 1 5.24802 19.1377 3.5549 
2980 4 1 5.36809 17.9737 4.12864 
3016 4 1 5.72865 18.0694 3.82834 
3011 4 1 7.80152 19.3981 1.7565 
3088 4 1 9.16412 0.661957 3.98689 
2971 4 1 8.95619 17.1156 1.32961 
2869 4 1 7.00529 17.4619 3.82292 
2791 4 1 8.59435 18.5581 2.40956 
3112 4 1 9.87611 18.7643 1.11928 
2485 4 1 8.19442 19.5827 2.90379 
3072 4 1 8.83254 17.9982 1.0337 
2551 4 1 9.07355 19.7607 3.41622 
2457 4 1 7.42642 18.5023 2.07724 
2945 4 1 5.59409 17.237 1.74744 
2600 4 1 6.23958 18.5377 1.19022 
3117 4 1 7.40787 17.438 3.42677 
2839 4 1 7.22218 18.2724 1.20453 
2858 4 1 9.08314 17.7916 1.97338 
2741 4 1 10.7934 19.3869 1.9619 
3155 4 1 9.83998 16.5215 1.11052 
3183 4 1 7.25782 17.881 2.35011 
2984 4 1 9.49991 18.214 2.21398 
2604 4 1 8.28819 18.0828 1.30367 
2729 4 1 7.85211 18.2249 4.00772 
3022 4 1 8.21966 18.8557 3.13708 
2555 4 1 9.63347 17.1771 2.70583 
2854 4 1 9.66574 18.0409 3.74361 
2823 4 1 8.23684 17.5446 1.6003 
2822 4 1 10.3233 0.522654 1.10805 
2490 4 1 9.92109 16.7282 2.72615 
2489 4 1 8.24816 16.7826 2.81424 
2712 4 1 9.35912 18.8425 4.72372 
2557 4 1 10.1695 17.2029 2.87841 
2894 4 1 9.68528 17.6945 1.95159 
2895 4 1 9.52345 19.9774 2.29885 
3147 4 1 9.30474 17.7028 3.04981 
2827 4 1 8.26056 18.3016 2.9173 
2972 4 1 12.9567 16.8328 2.45617 
3110 4 1 9.85706 17.2372 1.76884 
2884 4 1 10.7631 18.626 1.17607 
2861 4 1 10.8124 19.7801 1.01904 
3137 4 1 11.6443 19.5277 1.98511 
2605 4 1 12.0152 0.0841936 3.08755 
2849 4 1 12.9079 18.1179 3.29943 
3010 4 1 12.9349 19.3453 1.79403 
3046 4 1 14.2316 16.4591 2.21058 
2638 4 1 12.5956 16.9039 1.89782 
2476 4 1 10.2548 17.4489 1.50294 
2647 4 1 9.59494 19.1991 1.4956 
2671 4 1 10.0344 0.666979 3.94203 
3065 4 1 11.3587 19.7385 1.05331 
2825 4 1 12.7838 17.4443 2.11535 
2739 4 1 10.4738 19.6469 2.4292 
2679 4 1 10.9393 16.856 1.72872 
2893 4 1 11.9742 19.7968 3.69313 
2466 4 1 12.95 19.6366 3.62536 
2624 4 1 12.3408 18.4752 1.88353 
2824 4 1 10.9067 18.3521 2.07306 
2608 4 1 12.0639 19.1331 3.04211 
3074 4 1 10.7335 16.8268 1.25546 
2721 4 1 12.2227 18.2304 2.50981 
2904 4 1 10.8065 17.7838 2.0854 
3195 4 1 13.8528 16.294 1.96996 
3109 4 1 11.8119 17.2421 3.40472 
2666 4 1 10.4273 18.3878 2.58219 
3007 4 1 10.2369 18.9521 3.22166 
2553 4 1 12.6954 18.9551 2.23557 
3063 4 1 13.5178 18.345 2.53173 
2587 4 1 12.5778 17.9443 2.26417 
3001 4 1 12.219 19.1107 1.04077 
2864 4 1 10.795 17.8659 3.79635 
2636 4 1 11.3099 18.0074 3.00843 
2888 4 1 11.3579 19.6795 3.06855 
2807 4 1 10.4463 18.8342 3.73321 
2799 4 1 14.6862 19.0055 2.76817 
2680 4 1 13.8549 19.7397 3.50935 
2639 4 1 17.4239 0.317889 1.44303 
2977 4 1 14.3967 16.9662 3.44228 
3094 4 1 14.752 16.9767 1.42903 
3073 4 1 14.2274 17.3239 2.45774 
2621 4 1 15.5258 19.3576 2.30637 
2728 4 1 13.2541 16.8937 1.28485 
3059 4 1 13.8453 18.1534 1.92224 
2615 4 1 14.4323 19.2301 2.32414 
2626 4 1 16.2548 16.0804 1.44552 
2572 4 1 15.0119 18.2529 2.30399 
2949 4 1 14.1016 19.6322 2.45795 
2866 4 1 14.2926 18.6331 1.15056 
2501 4 1 15.817 19.0842 1.12192 
2627 4 1 14.5827 18.2154 1.13517 
2578 4 1 16.2071 17.4501 2.32828 
2678 4 1 15.9967 18.6745 5.01044 
2483 4 1 15.3589 18.374 1.80078 
3194 4 1 15.7902 18.163 1.64998 
3148 4 1 16.4175 18.7234 2.7433 
2683 4 1 14.8362 19.634 1.39727 
2488 4 1 15.6668 18.1057 2.14227 
3180 4 1 14.7917 17.5321 4.43937 
2720 4 1 13.9553 17.7454 1.54489 
2978 4 1 14.0541 18.3127 3.40777 
2853 4 1 13.911 17.7374 4.11993 
3197 4 1 13.7365 0.266798 4.21283 
2633 4 1 13.3832 19.0945 3.42197 
2542 4 1 16.4582 18.5575 3.94461 
2629 4 1 14.4239 16.534 4.14809 
2479 4 1 16.7904 17.6215 1.68611 
2987 4 1 19.3089 0.483913 2.40588 
2792 4 1 19.3475 18.792 1.65711 
3178 4 1 18.9852 1.89072 3.5828 
2836 4 1 17.0557 17.4985 4.07483 
2497 4 1 17.1182 18.8524 2.21827 
2472 4 1 16.8547 18.4917 2.41974 
2810 4 1 18.5328 18.5401 2.66588 
2694 4 1 18.4332 19.4181 1.46828 
3042 4 1 19.4463 19.5694 2.61437 
3026 4 1 18.0678 0.768413 1.98155 
2781 4 1 17.236 19.6213 2.16987 
3044 4 1 18.2224 19.264 2.22652 
2617 4 1 3.90808 3.15984 6.5969 
2956 4 1 4.67949 5.01394 1.88128 
3168 4 1 3.31333 18.679 4.29426 
2859 4 1 9.50857 2.91655 3.22457 
2529 4 1 12.6099 1.84563 3.63157 
2845 4 1 12.7352 0.592654 3.54441 
2914 4 1 10.2668 2.02578 5.00162 
2759 4 1 11.0975 0.667961 3.98067 
2979 4 1 11.3392 1.22332 4.30224 
2672 4 1 13.2613 2.90184 4.59743 
2453 4 1 10.1079 1.51886 4.91152 
2458 4 1 14.2516 1.9756 4.40942 
2451 4 1 12.4821 19.9069 4.91838 
3084 4 1 12.8501 1.24258 5.54143 
2686 4 1 12.7942 1.45989 4.36741 
2742 4 1 12.3231 2.32589 4.15405 
2763 4 1 12.3925 1.64552 5.77003 
2976 4 1 14.4945 19.9889 4.09571 
3169 4 1 14.094 1.25501 5.46204 
3019 4 1 14.8459 18.1849 4.58054 
3113 4 1 14.3005 0.714931 3.71266 
2695 4 1 14.9117 0.993942 3.55514 
2709 4 1 14.4863 1.02848 4.49672 
3192 4 1 18.4972 3.19727 2.8804 
2960 4 1 14.4189 0.948035 3.21982 
3132 4 1 17.4956 19.8726 4.58119 
3146 4 1 15.2506 1.36334 3.10204 
2706 4 1 12.5826 1.08951 3.8406 
2780 4 1 16.6661 17.8902 3.80197 
3076 4 1 16.5597 0.227812 3.94695 
2921 4 1 18.845 0.896195 3.93338 
2809 4 1 16.4967 0.76742 6.65645 
2821 4 1 17.3526 0.772211 4.16625 
2777 4 1 17.9092 1.28417 3.56791 
3162 4 1 15.697 0.633775 4.25863 
2540 4 1 3.26288 3.89451 1.84019 
3104 4 1 7.30043 5.77115 1.54369 
2469 4 1 13.3904 6.44101 5.88854 
3126 4 1 3.84067 2.01172 9.34196 
3021 4 1 9.23792 3.6847 1.27719 
2882 4 1 14.6903 2.08041 4.80859 
2586 4 1 12.9755 3.71545 3.84614 
3131 4 1 15.7614 7.84882 2.22055 
2808 4 1 15.7897 3.0313 2.77196 
2593 4 1 17.3647 4.56529 2.81035 
2653 4 1 3.01003 10.1304 1.98717 
2610 4 1 1.5138 10.6157 2.62656 
2682 4 1 14.1152 3.60453 1.65371 
2988 4 1 5.63304 13.7295 4.56785 
2997 4 1 8.41274 6.46773 4.27921 
2747 4 1 12.2009 12.5985 2.29232 
2929 4 1 16.028 11.7798 3.83619 
3050 4 1 12.2954 13.5353 2.9348 
2922 4 1 18.7365 8.95707 3.88134 
2505 4 1 18.2368 12.981 2.5763 
3080 4 1 2.92841 15.003 4.15064 
2939 4 1 3.72107 15.9195 4.53414 
2477 4 1 2.02634 10.8897 4.54393 
2646 4 1 3.70216 14.6728 4.02543 
2496 4 1 3.55714 16.8505 5.09558 
2967 4 1 4.63878 14.9827 4.33545 
2941 4 1 6.16414 16.6552 4.04567 
2614 4 1 7.00654 14.7269 5.47751 
3182 4 1 4.42944 17.1754 4.04034 
2737 4 1 4.23875 12.1201 3.3547 
2752 4 1 7.29987 16.622 5.31745 
3106 4 1 5.45315 14.069 4.14139 
2883 4 1 5.36147 14.2787 4.64946 
2733 4 1 4.82786 13.4755 4.26589 
2830 4 1 5.37413 15.2598 5.03352 
3018 4 1 4.7493 16.2589 3.97568 
3036 4 1 3.64324 13.6118 4.5734 
2681 4 1 3.71608 17.4566 6.02646 
2562 4 1 4.47874 15.5101 5.17241 
2860 4 1 4.55833 13.7384 5.83445 
3020 4 1 5.72435 13.1475 2.31229 
2667 4 1 8.17862 13.4758 4.21547 
2802 4 1 8.60219 15.2018 4.23171 
2817 4 1 6.79933 14.7373 4.4726 
2471 4 1 6.54906 16.1583 4.85791 
3017 4 1 9.9992 19.0929 4.32787 
2532 4 1 8.52748 14.346 6.37271 
2779 4 1 8.0395 13.9331 3.84611 
2944 4 1 10.1266 13.7608 4.30679 
2985 4 1 8.61397 15.4442 3.66724 
3170 4 1 7.34878 16.0534 4.16478 
2486 4 1 8.76885 13.5217 4.06837 
2961 4 1 6.56802 14.2095 4.41322 
2783 4 1 7.31539 14.5252 4.24929 
2696 4 1 7.92777 16.3011 3.79002 
2757 4 1 7.98234 15.521 4.4591 
2625 4 1 7.79245 13.6529 1.87453 
2848 4 1 8.6649 15.2344 5.09702 
2954 4 1 8.53926 16.1013 4.44013 
2925 4 1 8.13052 10.9449 2.78028 
2606 4 1 7.45668 15.5397 4.25221 
2975 4 1 9.80627 16.3276 4.73608 
3129 4 1 9.85534 14.9341 3.9944 
2475 4 1 11.4287 14.5246 3.22387 
2897 4 1 11.4425 14.8931 4.56552 
3114 4 1 8.80691 15.3501 5.66608 
2452 4 1 9.6552 14.7256 5.40346 
2907 4 1 10.9309 15.82 5.40478 
2691 4 1 10.8505 14.6215 4.55683 
3154 4 1 11.06 15.5223 3.67176 
2782 4 1 9.35759 15.8538 4.06405 
2523 4 1 10.0334 15.2205 3.40037 
2917 4 1 13.4231 16.4511 3.71337 
3119 4 1 9.77599 15.3048 6.31281 
2718 4 1 9.74351 14.2454 4.29998 
2558 4 1 11.821 15.9838 5.18566 
3087 4 1 13.0385 17.2234 4.29002 
3098 4 1 10.6057 15.5266 4.36321 
2748 4 1 9.83895 17.0027 4.41137 
2464 4 1 13.5149 15.1111 5.36028 
3144 4 1 12.9705 16.1688 3.51888 
2589 4 1 3.00983 16.0863 4.91733 
2474 4 1 12.9083 15.7346 3.92001 
2962 4 1 0.587981 17.7115 3.57535 
2717 4 1 18.4017 17.5337 2.86122 
2642 4 1 2.67456 14.8129 2.94699 
2538 4 1 0.641456 19.9936 3.04694 
2548 4 1 5.57202 18.3753 6.49711 
2804 4 1 1.58171 18.5588 4.04099 
2568 4 1 2.90432 18.0316 3.96632 
2896 4 1 3.03762 17.7568 4.35916 
2790 4 1 4.287 18.7517 3.87429 
3071 4 1 6.90062 18.3561 3.86932 
2547 4 1 3.70587 19.6886 3.73944 
3092 4 1 4.91951 0.209275 2.81696 
2730 4 1 7.99894 19.2101 4.83567 
2491 4 1 4.8934 19.1015 4.49679 
2512 4 1 6.29733 18.2975 3.73231 
3097 4 1 5.18961 17.7547 4.66329 
2734 4 1 6.86004 18.3754 4.81701 
2704 4 1 4.46513 16.2741 4.89914 
2773 4 1 4.81535 17.2585 4.73838 
2919 4 1 4.44253 16.5901 4.29851 
2754 4 1 5.20322 16.4516 4.18554 
3060 4 1 6.83773 16.2555 5.64128 
2520 4 1 9.10941 18.317 5.16195 
2519 4 1 11.5494 20.0033 4.95908 
2870 4 1 9.00883 17.508 4.81154 
2819 4 1 8.54386 17.3022 3.68827 
2775 4 1 8.17068 15.5334 5.63878 
2937 4 1 7.62541 17.8685 4.44998 
3191 4 1 8.6781 16.8809 4.69384 
3196 4 1 8.80314 18.9064 4.53862 
3015 4 1 7.43771 15.1511 5.5726 
2454 4 1 6.20865 18.5649 3.00571 
3199 4 1 11.1123 17.9588 4.93822 
3153 4 1 9.47942 16.8423 4.77859 
2913 4 1 5.93821 16.7546 5.19445 
2675 4 1 12.4454 18.7184 4.62195 
3105 4 1 11.5293 19.1233 4.02682 
2628 4 1 7.53189 17.5034 5.6573 
2688 4 1 12.4875 19.0793 3.94014 
3037 4 1 10.4771 18.0999 4.51021 
3186 4 1 12.9855 0.373615 5.20444 
2456 4 1 10.6948 19.6633 3.67641 
2514 4 1 14.0036 18.6167 4.68048 
3124 4 1 11.4285 16.617 4.49017 
2581 4 1 10.6924 17.2927 4.09054 
2528 4 1 11.4705 18.5682 4.05776 
3176 4 1 10.6988 15.7164 4.907 
2478 4 1 11.2288 18.5164 4.91145 
2867 4 1 11.9956 0.547642 5.04179 
3158 4 1 13.1541 18.2656 4.68474 
2915 4 1 15.0721 18.8148 4.40295 
3002 4 1 13.928 17.3975 3.59853 
2635 4 1 14.0193 17.9494 4.84093 
2613 4 1 9.69538 0.304167 4.2557 
2480 4 1 12.5763 19.4837 5.32478 
3057 4 1 12.6668 18.3839 5.23029 
2940 4 1 15.131 20.0087 4.80214 
3067 4 1 11.8165 14.4702 4.16296 
2942 4 1 11.105 0.676176 7.29216 
2756 4 1 13.9092 19.6624 4.91843 
2879 4 1 14.6233 18.1593 3.26317 
2698 4 1 1.77827 0.0248734 5.24464 
3115 4 1 15.2682 5.25399 2.89393 
3108 4 1 13.9765 10.4909 5.46616 
3077 4 1 15.7803 8.87985 1.08472 
2951 4 1 14.6895 9.36366 7.78044 
2750 4 1 10.1391 16.733 6.46479 
2936 4 1 8.76459 16.0035 7.33978 
3068 4 1 5.95234 1.68226 12.2681 
2834 4 1 14.0886 1.04516 12.2511 
2601 4 1 19.2382 6.99672 10.1223 
2986 4 1 1.39967 7.85569 11.4273 
2559 4 1 14.9919 4.46021 11.6605 
3069 4 1 1.4137 18.2218 11.8578 
3127 4 1 7.47101 4.17098 14.0745 
2800 4 1 4.06042 3.21093 17.0853 
2761 4 1 12.6114 1.24478 22.8667 
3149 4 1 17.3218 3.15705 19.3296 
2820 4 1 9.85037 19.8033 24.6348 
2970 4 1 7.59041 3.17668 26.2303 
2835 4 1 19.5375 18.2088 22.7719 
2710 4 1 19.6961 11.0446 24.9731 
3041 4 1 3.24002 17.1045 27.2034 
2563 4 1 4.36059 6.71177 27.8715 
2705 4 1 8.97823 9.35381 16.4144 
2699 4 1 0.370745 14.4559 30.3452 
3145 4 1 17.8412 6.40156 33.39 
2668 4 1 1.29067 0.993028 35.65 
2493 4 1 17.5802 14.9129 37.5564 
2546 4 1 14.6502 8.66059 33.3223 
2885 4 1 3.06845 18.8278 45.545 
2616 4 1 19.7987 13.181 40.613 
2837 4 1 17.8603 14.0979 31.4954 
3043 4 1 3.90133 17.1984 48.2271 
2598 4 1 10.4323 14.361 50.4591 
2902 4 1 7.84171 2.87464 47.9479 
2801 4 1 4.48005 1.66524 54.9049 
2554 4 1 19.8177 7.50966 49.5934 
2983 4 1 3.28233 1.38978 60.5185 
2846 4 1 9.22755 16.3925 57.8558 
ITEM: TIMESTEP
102000
ITEM: NUMBER OF ATOMS
750
ITEM: BOX BOUNDS pp pp ff
0 20
0 20
0 62
ITEM: ATOMS id type q x y z 
2509 4 1 0.561734 18.5303 3.70272 
2574 4 1 3.25294 0.563472 2.72971 
2583 4 1 1.56654 19.6914 2.81459 
3177 4 1 7.04949 19.653 2.37331 
3070 4 1 4.05904 19.7157 3.19197 
2746 4 1 4.70643 0.377675 2.81776 
3092 4 1 6.75463 0.520231 2.57156 
3121 4 1 10.9547 0.982149 3.93413 
3120 4 1 5.81927 18.9583 4.43476 
2994 4 1 10.5361 0.801291 1.1767 
2813 4 1 5.88969 0.0587621 2.30513 
2814 4 1 10.0353 2.69183 2.27436 
2762 4 1 7.97107 19.9369 1.39732 
3064 4 1 10.4103 1.84763 2.43782 
2772 4 1 10.2052 1.69661 3.84676 
2713 4 1 7.79736 2.57871 1.96256 
2953 4 1 11.7624 3.02153 1.63342 
3030 4 1 6.97461 3.42839 2.86963 
3089 4 1 8.42089 18.3948 4.6181 
2895 4 1 8.99008 19.4537 2.00518 
2859 4 1 10.1095 4.24565 2.92275 
2684 4 1 11.3159 1.30199 3.24679 
2857 4 1 10.6898 3.28363 1.73215 
3006 4 1 10.3587 2.07678 1.35847 
3107 4 1 10.0526 0.176761 1.9028 
2697 4 1 11.5623 0.406018 0.983284 
2999 4 1 11.2277 1.34345 2.6378 
3013 4 1 13.9333 2.99021 1.16484 
3082 4 1 13.0635 2.26044 2.57844 
2787 4 1 12.592 1.90853 1.54075 
3128 4 1 11.2742 3.20884 1.44232 
3152 4 1 12.4657 1.29117 3.54759 
2868 4 1 10.9237 4.07893 4.10184 
2660 4 1 12.9112 1.02972 1.1012 
3143 4 1 11.8933 0.684794 1.7316 
2612 4 1 12.26 0.127265 1.49606 
2648 4 1 12.331 0.233781 2.65453 
2655 4 1 14.331 1.55237 2.79999 
2993 4 1 12.5001 19.7329 1.80751 
2877 4 1 11.808 0.274551 2.58169 
2652 4 1 11.6068 2.0326 3.30983 
2460 4 1 12.4715 3.48756 2.99352 
2963 4 1 14.1232 2.30462 1.70153 
2850 4 1 10.0116 3.24916 2.6141 
2541 4 1 11.3353 1.44679 1.01056 
3053 4 1 9.06736 18.6239 1.48266 
3102 4 1 12.4436 1.3501 1.17306 
2795 4 1 10.7801 4.33086 2.04292 
2549 4 1 10.6835 4.7385 5.98821 
2998 4 1 12.6885 5.2842 1.18376 
2822 4 1 13.5077 1.57588 1.40121 
2605 4 1 12.5767 0.0152361 3.09886 
2529 4 1 12.734 1.04634 4.1808 
2845 4 1 11.9324 0.261482 5.51469 
2706 4 1 14.3529 0.872912 3.63647 
2744 4 1 14.0086 1.54961 1.97828 
2500 4 1 11.2062 1.92306 1.86423 
3135 4 1 14.3276 1.36421 1.08416 
3175 4 1 14.0895 2.15215 3.58788 
2611 4 1 14.8203 2.47033 1.86787 
2838 4 1 16.0197 0.384107 2.04716 
2901 4 1 15.2383 1.97679 1.06428 
3079 4 1 15.4139 1.19862 2.21966 
2716 4 1 13.7769 0.836194 3.12462 
3033 4 1 15.2092 0.732554 1.39226 
3101 4 1 14.6691 0.793937 1.64011 
2768 4 1 16.2966 0.509081 1.61103 
2765 4 1 13.3451 0.821808 1.49273 
3179 4 1 15.7841 1.04889 4.91766 
2702 4 1 17.2219 2.85777 3.69101 
3086 4 1 13.9306 0.502619 1.00731 
2725 4 1 13.7859 2.92315 3.04278 
3014 4 1 15.4617 0.380212 3.0183 
3051 4 1 14.8205 19.0361 1.10312 
2724 4 1 14.8079 3.16618 2.50248 
3103 4 1 15.8457 19.8729 2.11002 
2669 4 1 15.165 2.04074 2.85082 
2946 4 1 15.6578 0.870342 2.63525 
2875 4 1 14.8922 1.26435 2.24941 
2664 4 1 16.3364 2.75654 2.6026 
2856 4 1 15.0541 0.0194075 3.34655 
2920 4 1 16.5332 1.33164 0.959962 
3122 4 1 15.5248 1.69007 2.59038 
2774 4 1 14.9489 2.16107 4.05964 
2531 4 1 13.8572 3.16257 1.94363 
2968 4 1 16.2613 0.648469 2.58306 
2760 4 1 13.2538 2.93407 1.25945 
2656 4 1 13.8161 4.17463 3.26106 
3113 4 1 15.6373 18.818 4.69517 
2695 4 1 14.5063 0.301538 4.27205 
2960 4 1 14.2665 19.8158 1.87979 
3146 4 1 16.2071 0.559866 3.52961 
2808 4 1 16.3998 1.88791 3.34271 
2503 4 1 0.759716 16.2123 5.28441 
2506 4 1 16.0304 2.69937 3.04443 
2958 4 1 17.6296 19.7223 3.47798 
2585 4 1 0.258718 18.6331 2.57438 
3049 4 1 12.4449 3.50495 2.44684 
2918 4 1 17.2419 19.2229 5.13311 
2622 4 1 16.7114 0.881969 1.45899 
2692 4 1 0.265753 2.48432 1.28517 
2582 4 1 18.1623 19.7392 1.42493 
2878 4 1 16.4668 1.81651 1.95442 
3096 4 1 1.29569 0.283719 6.67449 
2711 4 1 16.8726 0.47645 1.74299 
2530 4 1 15.7764 0.214849 5.47408 
3173 4 1 16.8283 0.381831 3.23863 
2841 4 1 0.185552 3.85169 1.5342 
3031 4 1 17.5549 2.19242 2.22121 
2639 4 1 18.2942 1.21072 1.90744 
2987 4 1 18.5824 18.6915 1.57159 
3178 4 1 19.7454 18.759 1.7598 
3026 4 1 16.2956 19.581 1.37716 
3192 4 1 0.107774 2.46315 2.96696 
2777 4 1 17.3674 1.93531 3.20649 
2658 4 1 19.761 1.01659 1.35541 
2540 4 1 5.45982 4.66972 1.23894 
2607 4 1 4.49758 12.004 1.29924 
2462 4 1 4.17282 0.223719 1.57784 
3141 4 1 2.34018 9.74517 4.38502 
2956 4 1 9.03933 4.80075 2.31143 
2575 4 1 7.65608 2.27416 6.10251 
2906 4 1 19.7461 5.71078 1.35995 
3090 4 1 9.35332 4.00353 2.2977 
2923 4 1 7.02697 4.77752 1.53076 
3104 4 1 8.08999 5.82429 1.43483 
3021 4 1 10.6864 4.51259 2.59549 
2463 4 1 16.4066 7.85975 2.99078 
2876 4 1 11.8188 2.50595 2.70821 