ITEM: TIMESTEP
2000
ITEM: NUMBER OF ATOMS
500
ITEM: BOX BOUNDS pp pp ff
0 15
0 15
0 42
ITEM: ATOMS id type q x y z 
1704 4 1 1.365 1.66692 1.12022 
2022 4 1 2.78801 2.66655 2.14667 
1760 4 1 2.18159 2.36778 1.27805 
1928 4 1 3.06301 1.8713 1.48107 
1759 4 1 4.33817 2.28469 2.03791 
2125 4 1 4.89948 3.17064 1.65842 
1926 4 1 5.63464 2.014 3.31073 
2161 4 1 7.34815 2.14262 1.33151 
1916 4 1 8.33127 2.36425 1.77166 
2047 4 1 10.278 2.42355 3.50545 
2192 4 1 11.9548 0.455045 3.34759 
2111 4 1 2.41241 5.26904 2.31343 
2126 4 1 1.46228 6.38686 1.0199 
2178 4 1 1.11498 5.60948 2.55183 
2055 4 1 0.197068 5.20602 2.32768 
2073 4 1 5.08545 4.30992 1.64592 
1788 4 1 3.80712 5.06301 1.01479 
2038 4 1 3.60432 6.89851 2.65938 
2154 4 1 4.06962 4.88854 2.84708 
1834 4 1 5.00703 5.41576 2.83243 
1869 4 1 7.39828 4.904 1.4524 
1943 4 1 9.48793 4.493 2.14317 
2189 4 1 8.10423 3.89387 1.41059 
1899 4 1 10.5358 4.09102 1.28566 
1774 4 1 8.47379 6.84927 1.17359 
1921 4 1 8.8025 3.87703 2.94766 
2196 4 1 11.2329 4.13522 2.67344 
1709 4 1 11.7939 5.00988 3.17833 
1796 4 1 2.47596 8.1692 1.04669 
1998 4 1 3.43535 9.81713 2.8346 
1915 4 1 0.952696 10.8305 2.88907 
2113 4 1 1.7939 11.0929 2.47592 
2064 4 1 4.10693 9.70347 1.47114 
2071 4 1 5.60473 7.74273 1.19588 
2124 4 1 6.04803 9.5141 1.87725 
1985 4 1 5.31532 7.79277 2.9188 
1836 4 1 3.89261 11.2406 2.85335 
1918 4 1 7.61818 7.79489 1.43153 
1875 4 1 7.98175 9.53613 1.11582 
2096 4 1 8.35262 7.27569 2.18603 
1971 4 1 10.0237 9.22946 2.21752 
2070 4 1 10.3406 11.8472 2.00275 
1957 4 1 9.9867 11.3296 3.00851 
1803 4 1 9.33962 8.79874 3.32496 
2109 4 1 8.32074 10.148 2.45921 
1746 4 1 14.7072 7.74228 2.71361 
1739 4 1 1.42591 12.2537 1.26458 
2182 4 1 1.69016 13.832 2.19901 
2108 4 1 3.13811 13.0032 1.09738 
1952 4 1 2.33339 13.1842 3.14344 
1843 4 1 0.53217 11.8878 3.16571 
2072 4 1 4.83592 14.3569 1.7975 
2155 4 1 5.36355 12.1917 1.72888 
1831 4 1 4.82587 11.7538 3.2877 
1982 4 1 4.56244 13.0888 1.0625 
1983 4 1 5.51129 14.6647 3.66076 
1889 4 1 7.58071 12.2452 2.33325 
1860 4 1 4.67593 11.389 2.14454 
2008 4 1 7.38272 14.1472 3.14726 
1876 4 1 8.16119 11.4749 1.15899 
1744 4 1 8.16069 13.6921 2.52444 
1749 4 1 13.7329 11.5945 1.03662 
2185 4 1 0.678409 13.2005 3.59499 
1888 4 1 1.13047 3.5234 3.76642 
1874 4 1 3.0736 2.50452 5.06296 
1881 4 1 2.7075 2.10246 4.12384 
2166 4 1 3.59678 0.850415 6.61411 
2106 4 1 4.39731 0.948955 5.078 
1763 4 1 5.2859 0.923313 4.36333 
1845 4 1 3.52217 3.05967 5.91554 
2062 4 1 4.47135 3.53525 6.62703 
1872 4 1 7.62358 1.17695 6.71848 
1870 4 1 7.21579 2.1677 6.49699 
2080 4 1 6.31717 1.36129 6.03033 
2123 4 1 4.59899 0.0461332 4.02282 
1794 4 1 9.30587 2.35718 5.21435 
1707 4 1 10.4244 1.40323 3.21763 
2013 4 1 9.51045 1.43211 6.57879 
2151 4 1 11.1831 0.539249 7.26764 
1767 4 1 11.14 3.23272 5.06273 
2095 4 1 10.0424 0.497278 6.05166 
1896 4 1 8.9083 2.69201 6.9645 
1805 4 1 8.48941 3.63008 6.13338 
2024 4 1 12.0568 3.88337 4.49634 
2051 4 1 3.2975 4.45158 3.97714 
2019 4 1 3.03507 5.46936 4.3066 
2046 4 1 1.06881 5.41158 5.22287 
2002 4 1 3.35736 5.43287 5.22675 
1901 4 1 14.5856 4.96491 4.85028 
2136 4 1 4.94945 6.52552 4.44987 
1766 4 1 7.6261 5.33948 5.48547 
2122 4 1 5.06459 5.78324 5.20522 
1967 4 1 6.85911 6.34974 5.16032 
1919 4 1 6.04397 5.25965 4.70715 
2075 4 1 6.3463 5.75473 5.94554 
1990 4 1 5.29303 5.86942 6.25219 
1859 4 1 8.7331 4.94509 4.01083 
1949 4 1 9.9745 4.33759 4.30666 
2150 4 1 9.88286 7.45282 5.11264 
2016 4 1 9.34931 5.10198 4.73235 
2102 4 1 11.1098 4.72448 3.95975 
1701 4 1 8.53354 5.6942 4.97767 
2159 4 1 9.88418 4.82394 5.87284 
2165 4 1 12.4038 5.64153 5.04043 
1795 4 1 0.743328 9.45024 4.78058 
1950 4 1 1.84821 9.52894 5.34234 
2078 4 1 0.710346 11.5956 5.27972 
1751 4 1 7.16315 8.13554 4.18589 
1893 4 1 6.40207 7.81509 3.55959 
1883 4 1 4.28727 8.60531 4.22606 
1986 4 1 4.32307 8.84906 5.28028 
1925 4 1 6.39943 9.4851 3.49902 
2100 4 1 7.09439 8.80379 5.02986 
1755 4 1 6.01672 7.94649 6.62935 
1861 4 1 4.4011 11.1317 5.83146 
2021 4 1 9.45704 10.0561 3.94736 
1849 4 1 10.3249 8.8534 3.6009 
1911 4 1 10.0217 8.54372 5.19761 
2005 4 1 9.70122 8.65405 6.58482 
2014 4 1 9.10114 10.7037 6.072 
1992 4 1 10.3172 9.63372 5.74509 
2153 4 1 11.0412 10.9123 3.08315 
1858 4 1 12.5786 8.11551 3.32934 
1741 4 1 11.6677 10.4143 3.81642 
1712 4 1 14.9125 10.3708 7.24015 
1857 4 1 13.2215 9.7287 6.58843 
1814 4 1 13.6691 7.71789 5.68642 
1938 4 1 12.2635 10.2912 4.58412 
2131 4 1 11.9264 11.5699 3.09215 
1806 4 1 3.2901 12.5967 6.64909 
2056 4 1 6.89202 12.4701 5.41156 
1913 4 1 4.3594 11.779 6.88982 
2082 4 1 5.16926 14.1712 4.74548 
1979 4 1 10.7646 13.8311 3.97981 
1734 4 1 9.25481 12.1306 5.19646 
1740 4 1 13.4668 11.7043 5.356 
1981 4 1 11.4335 11.3868 4.38979 
1914 4 1 3.31484 2.24649 9.61601 
1786 4 1 6.90222 0.45139 7.33253 
1863 4 1 4.95849 1.99377 7.24654 
1714 4 1 3.78723 2.49906 7.89499 
2179 4 1 4.04742 1.60469 8.47195 
1745 4 1 6.48775 1.12067 8.28184 
1723 4 1 4.83085 1.19411 9.05903 
1939 4 1 3.75176 1.12536 9.52065 
1941 4 1 10.622 2.20632 7.72819 
1940 4 1 8.81112 1.29165 9.47507 
1706 4 1 7.78113 1.95325 8.3724 
2143 4 1 7.77043 0.826924 10.037 
2079 4 1 1.81268 7.58314 8.26038 
2140 4 1 3.5983 4.80586 7.89331 
1865 4 1 0.345207 5.87199 7.6689 
2026 4 1 1.03377 6.58866 9.42172 
1769 4 1 2.61578 7.55895 9.07432 
2158 4 1 5.2907 5.59522 7.28561 
2141 4 1 5.31568 4.01118 8.94244 
1750 4 1 5.54419 4.59218 7.85724 
1898 4 1 6.31271 5.82786 6.89912 
1954 4 1 6.02611 5.28559 8.45252 
2105 4 1 7.35177 5.80332 8.78193 
2181 4 1 5.95031 5.52959 10.3737 
2069 4 1 6.1154 4.68398 9.3828 
2037 4 1 4.94395 5.95292 9.93751 
1736 4 1 3.69312 11.9562 10.3976 
1840 4 1 11.6196 12.9345 9.82947 
2119 4 1 8.44078 4.39516 6.88705 
1791 4 1 8.39989 5.29 7.38521 
1885 4 1 10.4465 5.41599 7.48319 
2039 4 1 8.64361 4.15179 7.92854 
1960 4 1 9.40704 5.49105 7.62573 
1975 4 1 8.52958 4.08471 9.34536 
1944 4 1 9.71835 6.64348 9.71879 
1773 4 1 10.0477 4.79498 10.3077 
1731 4 1 11.9768 5.86252 7.73501 
1804 4 1 1.90154 8.87864 8.06948 
1884 4 1 0.850287 10.8053 10.1033 
1830 4 1 0.253033 9.91622 10.1201 
1776 4 1 3.50285 8.00652 7.23536 
1801 4 1 4.12783 7.41111 6.79343 
1838 4 1 4.85383 9.33935 7.28128 
1852 4 1 6.70616 8.80077 7.02656 
1716 4 1 4.80157 8.0833 8.80655 
2007 4 1 6.408 11.2572 8.70487 
1924 4 1 7.2603 10.1598 8.95565 
1976 4 1 7.46198 10.1601 7.77781 
2043 4 1 7.16656 8.70297 9.26901 
1841 4 1 4.7434 10.315 8.11632 
1902 4 1 5.47704 8.05507 9.59357 
1930 4 1 7.69783 7.44407 9.43827 
2156 4 1 5.60237 11.2426 9.34187 
2117 4 1 5.0564 10.2363 9.29397 
2006 4 1 4.00272 10.7044 9.84929 
2174 4 1 7.18435 10.5645 9.80834 
1813 4 1 11.1351 10.1232 7.18848 
2068 4 1 8.70672 10.5161 8.47515 
1977 4 1 7.84364 7.98485 8.50746 
2042 4 1 9.65329 8.84397 7.62288 
2163 4 1 10.1944 10.8243 9.68441 
1815 4 1 12.2998 8.72648 8.56094 
1920 4 1 14.2399 7.4165 7.91353 
1964 4 1 12.0175 9.62636 6.93769 
1757 4 1 14.8846 11.175 8.27801 
2115 4 1 12.1395 8.16644 9.84443 
2058 4 1 12.9363 10.2974 10.3776 
2191 4 1 2.15013 12.6573 9.54385 
2128 4 1 7.03961 13.9994 8.54435 
2057 4 1 7.39152 12.0093 7.24476 
1984 4 1 3.90289 13.1399 8.37843 
2097 4 1 7.95991 0.229455 9.01838 
1958 4 1 4.50123 11.9434 9.26553 
2050 4 1 4.59641 8.11321 10.2963 
1972 4 1 11.0518 11.9622 7.33652 
2198 4 1 9.95762 11.86 7.49518 
2187 4 1 10.5793 14.3219 7.51286 
1833 4 1 9.05272 14.3414 8.34936 
1790 4 1 7.45469 13.5395 9.92438 
1900 4 1 9.27251 13.5389 8.95112 
2120 4 1 3.42043 3.38823 9.9625 
1726 4 1 6.95891 8.04191 10.1267 
1965 4 1 6.75189 1.38253 10.3044 
2157 4 1 8.95333 14.8833 10.3352 
1738 4 1 4.62966 1.33059 10.3292 
2017 4 1 6.0512 10.9032 10.2989 
2009 4 1 11.8786 14.2855 10.3855 
1947 4 1 1.30119 2.97052 12.5591 
1752 4 1 3.36687 2.39444 11.8313 
1890 4 1 3.07101 1.1867 11.975 
1721 4 1 2.95027 0.57728 13.5352 
1829 4 1 3.30154 0.286892 11.3304 
1835 4 1 2.88795 1.6893 11.0573 
2129 4 1 2.13831 0.894668 11.0621 
1821 4 1 6.37657 2.19912 12.2009 
1842 4 1 7.69602 12.0693 19.897 
1743 4 1 5.22466 1.00441 11.7717 
1936 4 1 5.02856 3.27466 13.701 
1800 4 1 6.99147 0.384035 11.5897 
1702 4 1 4.81732 3.27854 12.3669 
1995 4 1 6.42057 3.06413 14.1179 
2130 4 1 5.77713 3.16607 12.8987 
1946 4 1 3.86583 1.29771 13.6646 
2146 4 1 6.87717 0.88548 12.6195 
2054 4 1 10.7092 1.48927 11.0142 
1770 4 1 8.19594 0.414613 10.9626 
1987 4 1 9.48949 2.8114 14.1909 
1823 4 1 11.0111 2.81752 11.9291 
2194 4 1 10.0289 0.467598 10.5821 
1882 4 1 2.60818 4.53923 15.725 
1879 4 1 2.05024 6.99982 11.1103 
1864 4 1 1.11992 4.29465 12.4854 
2144 4 1 3.26775 5.23326 11.0809 
2034 4 1 2.8371 6.82819 12.0346 
2199 4 1 0.520936 6.5624 11.0432 
1797 4 1 2.82576 4.02142 13.0332 
1868 4 1 5.32253 7.07453 13.8121 
1969 4 1 5.7277 5.16545 11.4527 
2168 4 1 5.54615 4.85954 12.4287 
1733 4 1 8.43534 8.13377 16.7226 
1720 4 1 7.11152 7.3251 12.7402 
1732 4 1 4.2514 6.9289 13.6898 
1789 4 1 6.82716 4.28541 12.7077 
2001 4 1 6.68912 6.16629 13.0459 
2088 4 1 4.9681 5.38012 13.2244 
2160 4 1 9.07156 7.13548 12.1804 
1906 4 1 8.35315 1.84817 20.2024 
1846 4 1 8.58944 6.47662 10.6226 
1963 4 1 9.61512 6.87992 10.9266 
2052 4 1 9.78836 5.84659 10.6228 
2167 4 1 8.66834 4.215 11.5328 
1923 4 1 10.1489 5.53415 11.6395 
1999 4 1 7.62885 7.59696 11.9287 
2089 4 1 10.6075 5.09329 13.6233 
2018 4 1 7.48403 4.05364 11.8387 
1837 4 1 11.2478 4.80893 12.0649 
1932 4 1 11.4571 6.98867 11.4506 
2053 4 1 2.83799 7.64215 11.5205 
2065 4 1 1.49207 10.4497 11.5852 
2084 4 1 2.52476 10.1792 10.9179 
2137 4 1 2.16785 10.914 13.6798 
1933 4 1 3.58899 7.89398 13.6718 
2061 4 1 2.41785 8.32919 13.5168 
1777 4 1 2.01344 9.50506 11.5955 
1989 4 1 2.12642 9.07444 12.6117 
1753 4 1 3.65431 10.3826 12.7569 
2028 4 1 4.40335 7.72384 12.1485 
2173 4 1 4.95169 8.59739 12.4658 
1973 4 1 4.9019 9.49911 11.2482 
1873 4 1 7.75851 9.87886 12.9117 
1862 4 1 6.81891 8.28 13.4896 
2107 4 1 5.62746 10.8854 11.9499 
1955 4 1 3.70057 8.27158 11.7314 
1956 4 1 9.05413 1.54825 18.0551 
2033 4 1 6.27176 12.8966 19.0396 
2083 4 1 5.83392 10.2416 12.732 
1844 4 1 5.36732 12.4258 19.4705 
2036 4 1 11.031 7.95389 12.3558 
1748 4 1 6.14839 11.9307 20.0258 
1768 4 1 10.2423 8.29225 11.335 
1799 4 1 10.234 10.7716 12.739 
2127 4 1 10.1891 10.5335 11.6294 
1737 4 1 11.2793 9.8054 11.693 
2044 4 1 9.56586 11.0242 10.5768 
1825 4 1 14.5069 8.78014 12.256 
1897 4 1 13.2382 11.3885 11.3612 
1991 4 1 14.4273 11.3245 11.6477 
1959 4 1 2.75644 12.1447 16.8663 
2112 4 1 1.07879 12.2671 12.7476 
2134 4 1 0.866092 14.2485 10.9309 
2164 4 1 6.94358 14.0665 19.6369 
1727 4 1 3.05304 13.9336 10.7159 
2027 4 1 5.7077 13.2831 13.7695 
1850 4 1 7.26951 0.154839 14.0563 
1710 4 1 3.61507 12.2768 13.3578 
2077 4 1 7.12738 13.2484 20.7536 
2132 4 1 7.35981 12.9918 13.1988 
2177 4 1 10.958 13.7887 13.1602 
2184 4 1 9.38379 13.3556 12.9391 
1929 4 1 7.84021 12.4703 14.0944 
1809 4 1 9.75291 12.2601 11.2932 
1722 4 1 10.4804 11.953 10.6279 
1974 4 1 8.54109 11.9437 11.9824 
1851 4 1 9.72188 13.9078 14.2007 
1802 4 1 8.75859 12.898 11.5285 
2116 4 1 8.82523 14.3102 12.9715 
1713 4 1 9.55262 14.8547 12.126 
1892 4 1 11.4507 12.6784 12.3516 
2138 4 1 12.8354 12.1228 10.5756 
1905 4 1 5.15007 7.16306 10.8156 
1910 4 1 2.24848 1.14929 15.1252 
1725 4 1 6.54158 1.36083 15.7533 
2170 4 1 7.17185 1.16532 13.9217 
1765 4 1 9.28093 0.842101 14.2547 
2193 4 1 2.55459 3.8778 14.1748 
2197 4 1 1.28972 6.30708 15.407 
1907 4 1 2.10256 5.31905 13.8992 
2121 4 1 2.67328 6.22835 14.4748 
1798 4 1 6.23934 7.02442 14.9644 
1922 4 1 4.1064 6.37909 15.4953 
2087 4 1 6.09891 4.894 14.5615 
2025 4 1 4.68187 5.30332 14.8471 
2076 4 1 7.4595 4.09759 13.8048 
1847 4 1 8.14573 6.24487 14.4235 
1761 4 1 1.88623 8.25668 15.1742 
2142 4 1 3.16044 7.83956 15.511 
1997 4 1 0.0437102 10.2758 14.2828 
1787 4 1 5.26227 8.98583 14.6896 
1792 4 1 5.18853 7.7433 16.4397 
1962 4 1 7.11925 10.8811 14.2352 
2092 4 1 4.56851 7.90741 14.2599 
1711 4 1 5.0753 9.30057 15.9131 
2188 4 1 4.732 8.83141 13.7812 
1978 4 1 8.51928 8.33738 15.1765 
1781 4 1 0.475703 0.136841 13.3178 
1904 4 1 3.01999 11.2427 15.2289 
2000 4 1 7.64274 14.2022 14.4332 
1927 4 1 3.39723 13.5231 14.9216 
2148 4 1 8.18767 12.7377 20.749 
1968 4 1 6.17537 12.4883 20.9645 
1775 4 1 7.36027 2.01959 22.2705 
2183 4 1 6.46862 1.53378 24.0429 
2049 4 1 10.2833 0.612926 22.8885 
1705 4 1 7.52016 1.4003 24.2617 
1827 4 1 9.06935 1.73153 23.892 
2015 4 1 7.69136 0.318659 23.2947 
1934 4 1 5.18426 4.14131 23.8277 
1942 4 1 7.72798 4.14908 23.146 
2041 4 1 8.21201 6.30711 31.2363 
2152 4 1 3.93503 11.977 22.0697 
1816 4 1 12.0977 9.6819 30.3062 
1891 4 1 7.82719 14.2204 22.9013 
1762 4 1 6.82598 14.5543 23.6597 
1771 4 1 5.499 11.7413 21.9431 
1877 4 1 5.52187 13.7932 22.3431 
1793 4 1 6.81266 11.7053 22.2471 
1903 4 1 8.75558 13.9032 22.185 
1703 4 1 11.5556 6.33183 31.4959 
1887 4 1 5.77554 3.09286 23.9342 
2200 4 1 6.98461 2.31763 25.9343 
2190 4 1 6.03313 1.92081 26.2271 
1820 4 1 6.9603 3.26765 24.3009 
1822 4 1 6.39101 1.27669 25.3209 
2067 4 1 8.526 0.893675 25.3218 
2180 4 1 7.3312 3.51045 26.9479 
1867 4 1 8.21129 3.10329 25.4906 
1839 4 1 12.8731 1.2067 23.8718 
1894 4 1 5.78002 5.05717 22.9352 
1782 4 1 6.51536 3.98769 25.1503 
1785 4 1 14.9658 4.93624 26.9566 
1855 4 1 11.6858 7.414 26.3198 
1756 4 1 12.579 6.85634 25.398 
1994 4 1 13.3423 7.63753 24.7703 
1988 4 1 13.0588 5.86211 26.0256 
1996 4 1 10.9729 5.42968 26.1415 
2195 4 1 12.0835 6.177 27.1746 
2098 4 1 9.24714 8.51854 27.6282 
1719 4 1 10.9028 7.55167 26.9824 
1854 4 1 11.3236 8.69094 26.6733 
1772 4 1 12.8841 9.2061 26.4005 
1931 4 1 13.5797 7.06167 25.7848 
2059 4 1 7.87819 14.1916 26.5718 
1945 4 1 6.64694 4.10323 29.2105 
1735 4 1 7.94612 9.55206 31.4318 
2118 4 1 7.23249 6.71423 30.1526 
2048 4 1 8.35161 7.06513 30.4521 
2135 4 1 10.3059 5.41051 30.1372 
1961 4 1 9.81604 6.70292 28.5657 
2099 4 1 8.41407 7.34043 28.1882 
2045 4 1 11.331 5.10392 30.7382 
1730 4 1 10.3912 6.2965 29.4722 
2091 4 1 8.56458 5.54403 28.8508 
2186 4 1 9.30039 6.96548 29.8604 
2066 4 1 7.89674 4.6506 30.2403 
1993 4 1 11.3255 7.04794 28.2535 
1729 4 1 13.5469 7.29491 30.2348 
1717 4 1 12.4252 7.41076 29.5978 
2020 4 1 12.8975 6.30011 30.6285 
1970 4 1 10.6751 5.82167 31.2024 
1878 4 1 6.94644 8.87142 29.4415 
1871 4 1 5.9939 8.39241 31.0083 
1715 4 1 10.8878 10.5222 29.9716 
2103 4 1 9.6057 11.1809 30.1571 
1780 4 1 8.19206 8.86479 29.4198 
2085 4 1 11.1344 9.37769 29.0457 
2023 4 1 9.23665 9.19434 29.0352 
1951 4 1 10.6348 7.51182 29.9258 
1778 4 1 8.54946 7.63655 29.4367 
2101 4 1 10.5073 7.59968 28.5765 
1728 4 1 10.584 9.70591 27.9975 
1817 4 1 9.01452 10.0064 29.7326 
1718 4 1 8.83761 9.82774 28.3667 
1856 4 1 10.7061 10.8879 31.2533 
1812 4 1 13.869 10.0317 30.5835 
1832 4 1 12.598 9.86191 29.1174 
1783 4 1 12.9877 8.32477 28.4537 
2171 4 1 5.07292 4.63679 33.461 
1909 4 1 7.81868 5.95214 32.2947 
2104 4 1 10.6026 6.79469 31.8044 
2040 4 1 7.50929 6.82176 33.0757 
2074 4 1 12.4692 6.83977 31.7097 
1866 4 1 11.1037 4.59407 34.6715 
1724 4 1 13.234 8.88985 31.7489 
1935 4 1 6.87988 7.88603 31.7672 
1747 4 1 9.52859 6.66398 31.8969 
1966 4 1 9.28449 7.76933 33.392 
2086 4 1 10.2073 8.49067 32.0117 
1754 4 1 8.37444 9.95294 32.6886 
1908 4 1 10.1747 10.6548 32.3076 
2030 4 1 8.66981 8.66682 32.7892 
2175 4 1 11.3559 8.55133 32.3593 
2004 4 1 11.5139 10.2605 31.8639 
2114 4 1 8.9542 10.2263 31.8369 
2169 4 1 8.29314 8.30566 33.8335 
1779 4 1 9.99513 8.13052 34.5949 
1758 4 1 9.31818 10.0223 34.0194 
2162 4 1 11.3327 8.38089 33.4428 
1948 4 1 12.431 9.37951 32.3374 
1828 4 1 9.98795 11.5762 33.146 
1810 4 1 4.51317 2.83825 37.8077 
1853 4 1 4.0263 4.73085 38.5132 
1912 4 1 2.84263 7.3419 37.4548 
2133 4 1 2.8678 9.48985 36.8081 
1937 4 1 3.36479 8.51407 36.5953 
1811 4 1 7.66916 8.31719 37.047 
1917 4 1 9.85597 9.96678 36.9629 
2010 4 1 7.87483 10.2353 37.9714 
1808 4 1 8.98561 7.97509 37.8193 
1764 4 1 11.5821 10.1184 38.0817 
2032 4 1 9.57479 9.25256 37.9048 
1953 4 1 12.3288 9.0407 38.1398 
2003 4 1 11.4094 11.3067 37.0991 
1818 4 1 5.54547 3.92557 39.5321 
1819 4 1 5.00157 2.26605 38.8841 
1895 4 1 4.48209 2.46114 40.8675 
2031 4 1 1.82673 7.98584 39.0317 
2176 4 1 2.97839 2.97874 40.8556 
1848 4 1 2.80007 6.39955 40.5589 
2011 4 1 4.00079 7.12824 39.8368 
1880 4 1 6.16497 4.52294 40.494 
2145 4 1 4.46208 4.53747 40.625 
2093 4 1 12.7014 5.91644 40.824 
2139 4 1 13.9979 5.78744 40.0009 
2081 4 1 2.98595 9.03081 41.0017 
1807 4 1 2.73699 8.80391 38.7266 
2149 4 1 3.10627 9.81071 39.3436 
2110 4 1 2.20913 9.20896 39.4851 
2060 4 1 4.78825 7.41784 40.5801 
1708 4 1 5.37993 10.1847 40.0503 
2172 4 1 7.06658 9.22713 37.4986 
1886 4 1 4.82561 6.19032 40.4914 
2090 4 1 6.57026 9.25025 40.392 
2094 4 1 7.85231 8.10241 40.6756 
2029 4 1 8.88514 8.61885 40.6692 
1742 4 1 9.15323 9.52663 39.0456 
2035 4 1 8.09562 9.37818 39.1256 
1980 4 1 7.22443 7.65752 39.5537 
2147 4 1 10.5972 10.437 39.0374 
1784 4 1 8.83324 7.28293 39.3803 
2063 4 1 3.56929 14.2416 40.4461 
1824 4 1 10.1515 9.89824 31.5444 
1826 4 1 6.6919 6.61758 31.5212 
2012 4 1 8.60667 7.37487 31.4768 
ITEM: TIMESTEP
2100
ITEM: NUMBER OF ATOMS
500
ITEM: BOX BOUNDS pp pp ff
0 15
0 15
0 42
ITEM: ATOMS id type q x y z 
1704 4 1 1.70746 1.4864 1.27147 
2022 4 1 2.88982 2.12271 1.91131 
1760 4 1 2.03569 2.52375 1.01337 
1928 4 1 3.83683 1.44308 1.07446 
1759 4 1 3.9357 1.95082 2.04265 
2125 4 1 5.10157 3.26034 1.04193 
1926 4 1 5.62758 1.80222 3.69511 
2161 4 1 7.78571 2.24283 1.51359 
1916 4 1 9.17125 2.08393 1.90114 
1707 4 1 10.6201 1.60834 3.05737 
2192 4 1 12.3243 0.660907 3.46379 
2111 4 1 2.10334 4.78038 1.94046 
2126 4 1 0.702133 6.9253 1.0944 
2178 4 1 1.01923 5.07591 2.53303 
2055 4 1 14.9072 5.36355 2.36447 
2038 4 1 3.34708 6.95673 2.00981 
2073 4 1 4.71816 4.60082 1.10981 
1788 4 1 3.09248 5.23451 1.2739 
2154 4 1 3.06238 5.24657 3.17674 
1834 4 1 4.77546 5.61669 2.98057 
1869 4 1 7.81838 4.52618 1.4194 
1943 4 1 10.0384 4.38234 2.02771 
2189 4 1 7.49471 3.27987 1.45785 
1899 4 1 10.8657 4.37114 1.22505 
1774 4 1 8.93958 6.83975 1.14111 
1921 4 1 8.50693 3.8775 2.85082 
2196 4 1 11.6242 4.48515 3.04864 
2096 4 1 7.96155 7.46547 2.55409 
1709 4 1 12.2636 5.36166 2.73308 
1796 4 1 2.11015 8.07075 1.6007 
1998 4 1 3.5045 9.76872 2.25316 
1915 4 1 0.32694 11.0302 3.15507 
2113 4 1 1.81465 11.7592 2.54663 
2064 4 1 4.01704 9.85767 1.00407 
2071 4 1 5.35173 8.13193 1.22036 
2124 4 1 5.91933 9.48025 1.86539 
1985 4 1 5.24696 7.90996 3.22572 
1925 4 1 6.46478 9.55508 3.40641 
1918 4 1 8.62716 7.96113 1.5459 
1875 4 1 7.71421 9.49687 1.05937 
1971 4 1 10.0186 9.56283 1.48322 
1803 4 1 9.73333 8.94137 2.88787 
2109 4 1 7.43979 10.1878 2.79451 
2153 4 1 10.5359 11.8926 2.29283 
1746 4 1 13.8981 7.5219 2.59764 
1858 4 1 12.8912 8.04199 2.4213 
1739 4 1 1.64442 12.3027 1.40753 
2182 4 1 0.84558 13.7324 2.71488 
2108 4 1 3.54395 13.1752 1.42383 
1952 4 1 2.50596 13.0009 4.40882 
1843 4 1 0.193076 12.0912 2.74351 
1836 4 1 3.61481 11.7463 3.14872 
2072 4 1 4.80494 13.9121 1.35616 
2155 4 1 5.49759 12.4329 2.26039 
1831 4 1 4.80033 12.2856 2.99761 
1982 4 1 4.97202 12.9077 1.33652 
1860 4 1 4.7458 11.6066 1.94162 
2008 4 1 7.22967 14.3746 2.99246 
2070 4 1 10.7431 11.9757 1.01433 
1957 4 1 9.53929 11.7272 3.04314 
1889 4 1 7.79058 12.4271 2.03531 
1876 4 1 8.16784 11.5697 1.22281 
1744 4 1 8.21984 13.6823 2.84359 
1749 4 1 14.2423 13.205 1.26638 
2131 4 1 11.6017 11.7044 3.39836 
1888 4 1 0.608253 2.69382 3.58088 
1874 4 1 2.84735 2.27474 5.12267 
1881 4 1 2.73828 1.21243 4.68085 
2166 4 1 3.28172 0.567956 6.14126 
1845 4 1 3.2703 2.81038 5.8071 
2106 4 1 4.73945 0.667013 5.33892 
1763 4 1 5.64277 0.953607 4.48115 
2062 4 1 4.16945 3.5829 6.52463 
1870 4 1 7.34589 2.10344 6.58003 
2080 4 1 5.99957 0.668784 5.89891 
2123 4 1 3.88685 0.0886682 4.11383 
2047 4 1 11.0784 2.54561 3.5217 
1872 4 1 7.94447 1.11773 6.23826 
1794 4 1 9.62885 2.86563 4.80272 
2013 4 1 9.40428 1.68023 6.70096 
1767 4 1 11.7648 3.50555 4.51305 
2095 4 1 9.74532 0.633158 6.46868 
1896 4 1 9.11956 2.53094 7.19049 
1805 4 1 8.32508 2.81358 6.36209 
2051 4 1 3.48391 4.07965 3.06765 
2019 4 1 2.87351 5.16913 4.5107 
2046 4 1 0.200984 5.65804 4.76092 
2002 4 1 2.92434 5.52111 5.71595 
2136 4 1 4.5611 6.51129 4.58436 
2122 4 1 4.68031 5.64324 5.06889 
1967 4 1 6.82727 5.85814 4.65151 
1919 4 1 5.41665 5.25966 4.19927 
2075 4 1 6.03061 5.6264 5.46903 
1990 4 1 5.19613 5.44647 6.20915 
1898 4 1 6.38174 5.64573 6.7761 
1801 4 1 4.13826 7.73096 6.65793 
1766 4 1 7.8083 5.51394 4.97665 
1859 4 1 8.76806 4.62663 3.61193 
1949 4 1 9.83609 4.12705 4.18445 
2150 4 1 10.0598 7.55109 5.41768 
2016 4 1 9.55431 4.7753 4.85836 
2102 4 1 10.769 4.72247 4.39891 
1701 4 1 8.77735 5.53896 4.63088 
2159 4 1 9.93869 4.73827 5.81203 
2119 4 1 8.41394 4.30921 6.89059 
2024 4 1 11.7439 4.69967 5.48569 
1901 4 1 13.0511 5.24259 3.45494 
2165 4 1 12.252 5.76164 4.5651 
1795 4 1 0.209707 9.12211 4.10582 
1950 4 1 1.15616 9.59301 4.78875 
1751 4 1 7.05513 8.10815 4.74127 
1893 4 1 6.53023 7.91948 3.84198 
1883 4 1 3.67397 8.38582 4.6855 
1986 4 1 3.90641 9.32444 5.19496 
2100 4 1 6.67367 9.10384 5.12817 
1755 4 1 6.03287 7.90934 6.16063 
1861 4 1 4.64177 11.2827 5.89538 
2021 4 1 9.60002 10.0567 3.81682 
1849 4 1 10.3012 9.08706 4.09009 
1911 4 1 9.9983 8.53392 6.07294 
2005 4 1 9.26201 9.13971 6.89567 
2014 4 1 8.66691 10.6279 6.08646 
1992 4 1 10.1483 10.4595 5.45709 
1741 4 1 11.5122 11.0352 4.26121 
1857 4 1 12.9705 9.73035 6.54708 
1814 4 1 14.1785 7.91285 6.52872 
1938 4 1 12.4836 10.4804 4.52606 
1964 4 1 12.0529 9.82995 7.15025 
2185 4 1 1.38729 14.5557 4.37229 
2078 4 1 1.46042 11.8586 4.4453 
1806 4 1 3.75026 13.1201 5.83551 
1983 4 1 5.72222 0.225187 3.39475 
2056 4 1 7.01929 12.8627 5.60257 
1913 4 1 4.45344 11.4935 7.25778 
2082 4 1 4.24622 14.2246 5.036 
1979 4 1 10.7754 13.9519 3.83902 
1734 4 1 9.65546 11.8215 5.21783 
1740 4 1 13.0853 12.1364 5.01836 
1981 4 1 11.8316 12.6998 3.79964 
1914 4 1 3.33362 2.32375 9.63949 
1939 4 1 3.28276 0.771366 9.6471 
2120 4 1 3.1593 3.25938 9.77443 
1786 4 1 7.13245 0.715729 6.96784 
1863 4 1 5.06742 2.76619 7.13624 
1714 4 1 4.02648 2.90744 7.63456 
2179 4 1 3.39318 1.6365 8.95808 
1745 4 1 6.26546 1.13251 7.75043 
1723 4 1 4.43035 1.47595 8.65445 
1965 4 1 7.12579 1.49188 9.76457 
1738 4 1 4.86142 0.850155 9.89678 
2151 4 1 10.6706 0.858312 7.20336 
1941 4 1 10.8271 1.85352 7.65778 
1940 4 1 9.15451 1.45308 9.50915 
1706 4 1 7.93034 2.04276 8.45881 
2143 4 1 7.56628 0.574535 9.68228 
2097 4 1 7.94236 0.145059 8.37901 
2140 4 1 2.95064 4.73899 8.04741 
1865 4 1 14.5248 4.29926 6.3581 
2026 4 1 14.9921 6.49257 9.48282 
2158 4 1 5.38905 5.79664 7.20208 
2141 4 1 5.46908 3.96577 8.67027 
1750 4 1 5.21318 4.53936 7.88872 
1954 4 1 5.91566 5.50689 8.44851 
2105 4 1 7.44806 5.65102 8.62056 
2181 4 1 5.84507 5.51679 9.79528 
2069 4 1 6.3916 4.08664 9.25589 
2037 4 1 4.99424 6.1226 9.60387 
1791 4 1 8.44954 5.20444 7.54338 
1885 4 1 10.9542 5.13719 7.63198 
2039 4 1 9.0248 4.15451 7.61721 
1960 4 1 9.80822 4.9718 7.49037 
1975 4 1 8.48931 4.04786 9.25166 
1944 4 1 10.0447 6.71908 9.78719 
1773 4 1 9.73517 4.62346 10.1767 
1930 4 1 8.08689 7.48133 9.24779 
1731 4 1 12.1966 5.79148 7.54596 
1920 4 1 14.6278 8.30864 7.38335 
2079 4 1 1.244 7.27032 8.34757 
1769 4 1 2.33078 7.74871 9.02401 
1804 4 1 1.17328 9.1535 8.11288 
1884 4 1 0.862724 10.9073 10.1573 
1830 4 1 0.278498 9.88914 10.0622 
1776 4 1 3.32883 7.62158 7.29962 
1838 4 1 4.64562 9.31609 7.10263 
1852 4 1 6.50305 8.80467 7.03616 
1716 4 1 4.41418 7.93105 8.71388 
1924 4 1 7.70606 9.74891 8.40825 
1976 4 1 7.20109 10.3757 7.71269 
2043 4 1 7.38067 8.34207 8.50417 
1841 4 1 5.04774 10.2351 7.53039 
1902 4 1 5.37774 7.10801 9.58195 
2156 4 1 5.98207 11.3695 9.14081 
2117 4 1 5.02952 10.9166 8.85633 
2006 4 1 4.24315 11.0443 10.3141 
2174 4 1 7.01168 10.4706 9.91044 
2050 4 1 4.44289 7.76894 9.88515 
1722 4 1 10.5934 11.9368 9.4821 
1726 4 1 7.66319 8.765 10.4399 
1813 4 1 11.3734 10.2862 6.36277 
2068 4 1 8.77644 10.1152 8.61284 
1977 4 1 7.8916 7.58059 8.07003 
2042 4 1 9.99548 8.82632 7.69143 
2163 4 1 10.7113 10.7982 9.77227 
1712 4 1 0.0768126 10.0595 6.29323 
1815 4 1 12.7434 8.60251 8.69141 
1757 4 1 14.4923 11.6539 7.63562 
2115 4 1 12.602 7.99731 9.64337 
2058 4 1 12.3195 10.046 9.4555 
2191 4 1 1.52585 13.9919 9.41183 
2007 4 1 6.79129 10.9478 8.6278 
2128 4 1 7.38789 14.2117 8.16929 
2057 4 1 7.19366 12.1204 7.32884 
1984 4 1 4.00132 12.6584 9.03082 
1958 4 1 3.9611 11.4043 9.31555 
1790 4 1 7.80915 13.5167 9.95282 
1972 4 1 10.9339 11.5582 7.01388 
2198 4 1 10.0175 11.2142 7.5547 
2187 4 1 11.2376 14.1038 7.46676 
1833 4 1 9.65342 14.3917 7.55127 
1900 4 1 9.53805 13.6135 8.4891 
1840 4 1 11.7005 13.518 10.0336 
2009 4 1 11.5703 14.694 9.62508 
2017 4 1 6.14338 10.8928 10.2062 
2134 4 1 0.42326 13.5313 10.1504 
2194 4 1 10.302 0.883424 10.2958 
1736 4 1 3.61734 12.171 10.4881 
1947 4 1 0.417372 3.40662 13.047 
1752 4 1 3.1563 2.3059 11.9748 
1890 4 1 3.64466 1.20385 11.9135 
1721 4 1 3.18168 0.750865 13.1677 
1829 4 1 3.34765 0.192349 11.3709 
1835 4 1 2.94427 1.36798 11.1743 
2129 4 1 2.03859 0.555164 11.2661 
1781 4 1 0.615007 0.208233 12.7538 
2148 4 1 8.82467 13.3292 20.0793 
1821 4 1 6.59217 2.40792 11.9491 
1743 4 1 5.08731 0.798562 12.1763 
1936 4 1 5.1342 3.43656 13.9074 
1800 4 1 6.38214 0.379354 11.5861 
1702 4 1 5.05477 2.98713 12.2024 
2130 4 1 5.62549 3.51231 12.9625 
1946 4 1 3.65844 1.56673 14.0762 
2146 4 1 6.98335 0.717508 12.494 
2170 4 1 6.85109 1.73745 14.3796 
1844 4 1 5.86758 13.72 18.9593 
2054 4 1 10.6348 1.77519 10.7427 
1770 4 1 8.18082 0.260272 10.6248 
1823 4 1 11.1889 3.10803 11.0181 
1879 4 1 1.68557 6.65272 11.0328 
1793 4 1 7.79354 12.0604 20.7768 
1864 4 1 0.677855 4.17514 12.1112 
2144 4 1 2.60659 5.00996 10.9528 
2034 4 1 2.71482 6.84798 12.02 
2199 4 1 0.675127 6.63124 10.6909 
1797 4 1 2.57397 3.89457 12.9115 
1907 4 1 2.06191 4.99696 13.6573 
1894 4 1 3.27384 3.66803 20.5252 
1868 4 1 5.15412 7.3723 13.5247 
1969 4 1 5.66182 4.86998 10.9793 
2168 4 1 5.53795 5.101 12.3237 
1720 4 1 6.39589 6.98184 12.8124 
1732 4 1 4.01782 7.07262 13.428 
1789 4 1 6.68825 3.98668 13.1588 
2001 4 1 6.88796 5.77979 12.8542 
2088 4 1 4.67044 5.10347 13.5073 
2018 4 1 7.50829 4.35323 11.9036 
2076 4 1 7.37255 3.77624 13.889 
2033 4 1 6.49714 13.255 18.1039 
2160 4 1 8.51791 7.34109 12.4089 
1846 4 1 8.89314 7.01355 10.9035 
1963 4 1 9.94233 6.64724 10.9182 
1748 4 1 6.29171 12.4716 19.078 
2167 4 1 8.61367 4.19322 11.4604 
1923 4 1 9.82498 5.05067 11.6132 
2089 4 1 10.1329 5.03638 13.7913 
1837 4 1 11.3612 4.79076 12.092 
1932 4 1 12.643 6.118 11.1744 
2053 4 1 3.18184 7.5407 11.4956 
2077 4 1 7.95374 13.8786 19.4721 
1905 4 1 4.9772 6.72664 10.5101 
2065 4 1 1.30478 10.3706 11.0893 
2084 4 1 2.46692 9.79395 10.7018 
2137 4 1 1.87759 10.8163 13.2005 
1933 4 1 3.32977 7.93535 13.4798 
2061 4 1 2.26136 8.42604 13.673 
1777 4 1 1.59492 9.36232 11.4394 
1989 4 1 2.00103 8.88944 12.3822 
1753 4 1 3.78087 10.4623 12.4308 
1955 4 1 3.94994 8.36396 11.8024 
2028 4 1 4.58815 7.43051 12.4614 
2173 4 1 5.02237 8.49071 12.3585 
1973 4 1 4.80958 9.11947 11.3178 
1862 4 1 6.6307 8.55709 13.0632 
2107 4 1 5.56958 10.9695 11.9004 
2083 4 1 5.75805 10.1925 12.8176 
1842 4 1 8.4538 12.6168 19.3683 
2188 4 1 4.64101 8.9864 13.7535 
1999 4 1 7.28555 7.39549 12.3538 
1873 4 1 7.84405 9.79086 13.0968 
2036 4 1 11.461 7.60516 12.5918 
1768 4 1 10.9263 7.96879 11.3818 
1799 4 1 9.89183 10.6806 12.8596 
2127 4 1 10.7985 10.9846 11.8481 
2044 4 1 9.28008 11.007 10.8403 
1737 4 1 11.3549 9.75701 10.6977 
1825 4 1 12.174 9.96887 12.3858 
2112 4 1 0.986196 12.2864 12.5023 
1727 4 1 3.02266 13.2037 10.7211 
1710 4 1 3.75314 12.392 13.256 
2027 4 1 5.90204 13.2546 13.7744 
2132 4 1 6.70921 12.8241 13.2046 
2164 4 1 5.79756 14.6694 18.2506 
2177 4 1 11.1041 12.8816 13.0325 
2184 4 1 9.58757 13.3656 12.4291 
1809 4 1 9.67069 12.2652 11.0441 
1974 4 1 8.74857 11.8758 11.8857 
1802 4 1 8.92916 12.9401 11.6317 
2116 4 1 9.39755 14.4116 12.8053 
1713 4 1 10.1061 14.2077 11.684 
1968 4 1 6.94101 12.983 20.8416 
1897 4 1 12.6662 12.2593 12.4148 
1991 4 1 14.2545 11.5783 11.7836 
1892 4 1 11.6853 11.823 12.3985 
2138 4 1 13.1197 12.8433 10.6051 
1910 4 1 2.52451 2.06981 15.8676 
1995 4 1 6.45439 3.12547 13.9576 
1850 4 1 7.15184 0.207177 14.3336 
1725 4 1 7.27137 0.904101 15.278 
1987 4 1 10.1026 2.764 13.5206 
1765 4 1 9.48725 1.1396 13.7452 
1882 4 1 2.33846 4.56742 16.8182 
2193 4 1 2.76507 3.55717 13.9993 
2197 4 1 0.995532 7.05037 15.6153 
2121 4 1 2.10723 6.23462 14.2739 
1798 4 1 5.38453 7.13484 14.7993 
1922 4 1 4.58191 5.33091 15.6881 
2087 4 1 6.62986 4.67603 14.3413 
2025 4 1 5.1515 5.15482 14.6523 
1847 4 1 8.27312 5.67073 14.6327 
1761 4 1 1.65669 8.61529 15.2252 
2142 4 1 2.99672 7.67991 15.5517 
1997 4 1 14.7136 10.9043 13.3436 
1904 4 1 1.82739 9.54656 15.3398 
1787 4 1 4.74907 9.00502 14.8459 
1792 4 1 4.11686 7.4103 16.1389 
1962 4 1 7.65055 10.5136 14.6437 
2092 4 1 4.43479 7.9959 14.3547 
1711 4 1 5.10128 9.6455 16.0541 
1733 4 1 8.88329 6.54207 14.9676 
1978 4 1 7.99206 8.27873 14.4752 
1927 4 1 2.03832 14.2089 14.0529 
1959 4 1 1.94242 11.1089 14.878 
1929 4 1 7.97498 12.8293 13.4089 
1851 4 1 9.55747 14.9951 13.7609 
2000 4 1 8.5155 14.6687 14.0035 
1906 4 1 8.38542 1.22182 19.3147 
1956 4 1 8.65288 0.989694 14.6787 
2052 4 1 9.41791 5.77351 10.9504 
1903 4 1 9.08308 0.309224 20.4931 
2157 4 1 9.61886 14.9291 10.5421 
1775 4 1 7.46323 1.42001 22.6754 
2183 4 1 6.03888 2.29885 23.4747 
1887 4 1 5.68911 3.26437 23.1061 
1820 4 1 6.85936 3.29712 23.235 
2114 4 1 9.20112 10.2232 30.9486 
2049 4 1 12.849 13.4469 22.5702 
1705 4 1 7.22758 2.18588 23.3889 
1827 4 1 7.59031 1.08613 23.6384 
2015 4 1 7.21173 0.266894 22.7789 
1839 4 1 13.0182 14.4055 21.8406 
1934 4 1 5.33604 4.36552 23.2678 
1856 4 1 11.2339 11.6932 30.9862 
1942 4 1 7.77574 4.00879 23.3275 
2152 4 1 3.33774 12.1111 21.7189 
1762 4 1 6.64228 14.2825 22.6558 
2074 4 1 11.7077 6.82767 31.3082 
1771 4 1 6.69002 11.6854 21.4989 
1877 4 1 6.43628 13.8327 21.1678 
1747 4 1 9.33149 6.34131 31.2575 
2004 4 1 11.7966 10.0561 30.4618 
1891 4 1 7.9599 14.4574 22.3469 