ITEM: TIMESTEP
5100
ITEM: NUMBER OF ATOMS
1000
ITEM: BOX BOUNDS pp pp ff
0 40
0 40
0 42
ITEM: ATOMS id type x y z 
4162 5 11.7027 2.08117 15.1115 
4240 5 5.06473 1.20507 1.16811 
4760 6 16.3504 2.10828 3.08366 
4125 5 37.3395 1.22621 20.1526 
4537 6 31.3792 0.042425 4.7649 
3851 5 8.01936 18.7143 11.1724 
4766 6 28.2189 0.261175 3.2808 
3997 5 27.9358 2.94193 3.26917 
4172 5 24.5464 6.48792 1.91366 
4636 6 27.2504 0.502249 4.52374 
4418 6 30.7399 0.476722 2.54067 
4502 6 28.8735 4.26798 3.25061 
4727 6 0.61735 6.07327 5.76531 
3910 5 38.4686 5.72105 2.05174 
4409 6 2.6155 8.35193 4.24358 
4747 6 3.64502 8.39551 1.95471 
4133 5 0.84092 9.24927 2.79208 
4608 6 4.6556 10.9518 3.58711 
4268 5 3.74555 9.97665 2.98049 
4003 5 8.96716 10.5694 1.30262 
3916 5 9.4603 9.68165 1.48533 
4286 5 6.5645 9.09616 4.13383 
3967 5 21.0144 10.9569 2.82039 
3884 5 21.7953 11.3197 1.72745 
4202 5 26.9899 9.25315 2.71287 
3987 5 28.5845 9.35263 5.55122 
4054 5 27.6309 8.33264 2.74213 
4388 6 29.0833 12.0406 4.02165 
4231 5 33.8599 13.1123 2.91615 
3956 5 31.6651 10.7397 3.37747 
4333 6 33.3086 6.49603 5.0513 
4228 5 4.47073 13.6987 1.02528 
3931 5 1.39449 19.5492 1.33581 
4463 6 2.11195 18.3466 3.50251 
4616 6 3.92734 19.6756 4.09749 
3903 5 9.70379 13.9664 4.97165 
4247 5 6.10459 13.7037 4.5255 
3948 5 37.3906 15.8144 18.7987 
4562 6 6.93697 18.297 2.59103 
4137 5 14.4017 18.5571 1.69175 
4262 5 18.7955 17.6481 2.0681 
4431 6 18.6386 12.9602 1.56113 
3901 5 21.463 18.4601 3.97059 
4131 5 17.9898 17.4194 3.82563 
3817 5 16.7844 14.7893 3.82918 
4786 6 17.8063 16.9426 2.55528 
4534 6 21.6803 16.746 2.96348 
3803 5 18.9664 17.2962 1.00047 
4584 6 26.1209 16.2704 1.65766 
3846 5 25.7676 19.4925 1.73922 
4681 6 25.6987 17.097 4.72918 
4238 5 25.8264 18.2337 1.43441 
4040 5 24.2327 15.3456 3.70156 
3928 5 24.2659 16.3679 3.56486 
4373 6 25.2927 17.7451 2.27619 
4603 6 32.6497 14.5097 5.70252 
4758 6 34.0473 14.7271 4.71093 
4625 6 32.8742 17.9096 1.03881 
4170 5 20.5323 0.566075 6.23037 
4412 6 34.7079 15.2845 4.2081 
4179 5 37.528 19.3519 2.06717 
4770 6 38.1545 15.9123 2.95362 
4485 6 35.0346 16.6425 1.74231 
4036 5 34.8872 14.0938 5.24177 
4208 5 36.9107 18.6156 1.3587 
4383 6 4.10856 1.31019 8.86604 
4015 5 4.5422 2.50017 4.78823 
4573 6 3.53804 1.49372 10.4162 
4688 6 7.36509 1.93401 9.85308 
4590 6 11.5069 2.97144 9.3817 
4132 5 19.8829 5.24293 5.53304 
4543 6 20.9918 1.37929 7.89037 
4784 6 20.5063 5.96842 8.04152 
4127 5 20.7402 5.04129 8.52633 
4493 6 18.787 0.676189 5.6578 
4560 6 20.0398 6.07245 9.09074 
4657 6 20.7346 6.1064 6.75978 
4270 5 10.4807 0.314608 14.3805 
3886 5 25.775 8.01992 7.49129 
4614 6 25.9488 6.57272 10.3817 
4654 6 28.6101 1.10161 7.28703 
4390 6 29.2258 2.95538 7.71777 
4276 5 23.852 19.3191 8.16107 
4123 5 25.8944 18.9381 17.228 
4311 6 34.542 6.91087 9.10346 
4360 6 31.1197 2.0081 9.33957 
4105 5 29.3247 3.14955 9.20751 
4595 6 32.0124 1.18882 8.93635 
4324 6 31.5352 5.62531 6.08551 
4720 6 32.6151 2.2705 7.09425 
4772 6 34 0.762995 8.85289 
4402 6 4.33921 12.4628 4.68576 
4328 6 4.65879 10.0072 8.76024 
4207 5 0.0531576 8.12896 5.51627 
4087 5 0.327997 10.7901 6.87442 
4550 6 8.19334 11.4077 9.03641 
4641 6 8.57102 12.3878 6.68542 
4564 6 8.25859 10.6028 7.93091 
4496 6 12.0053 9.6361 7.51056 
4645 6 12.1559 8.11408 8.6276 
4080 5 22.6305 7.41557 5.64939 
4430 6 23.393 12.6973 9.99244 
4039 5 19.4806 8.68875 7.42467 
4066 5 23.5232 11.7069 8.96277 
4548 6 23.6541 9.61229 7.98985 
4330 6 26.68 10.7195 8.50776 
3834 5 27.6154 7.32494 6.59663 
4182 5 27.5593 12.0983 6.35737 
3980 5 27.0974 9.44186 6.77547 
4115 5 31.4868 12.9951 5.37722 
3936 5 31.6704 7.71691 9.34548 
4156 5 29.9781 8.71455 8.0834 
3852 5 32.1588 9.45125 10.2019 
4180 5 30.5916 9.54519 9.33572 
4535 6 35.7067 9.21729 5.71157 
4785 6 38.1499 8.55026 9.46051 
4242 5 38.0336 10.0623 6.32978 
4206 5 36.1583 7.05911 8.71392 
4570 6 35.5219 11.4895 8.9931 
4078 5 36.5687 9.70484 9.44633 
4100 5 38.265 7.62035 4.51124 
4289 5 1.19439 13.7983 9.35587 
4022 5 39.6589 16.3261 8.22706 
4540 6 33.1294 19.409 8.99221 
4079 5 3.75543 15.8039 5.66789 
3994 5 6.70088 13.3757 6.86007 
4733 6 11.7021 19.541 7.34517 
4533 6 13.4707 18.6754 4.94304 
4073 5 14.3125 15.4401 8.16112 
4671 6 20.8341 16.6029 6.86832 
4424 6 21.9004 18.359 5.34246 
4639 6 20.0292 18.7582 5.08595 
4565 6 20.4206 14.7117 6.69206 
4334 6 22.2221 13.9826 6.55832 
4791 6 26.7704 19.3214 8.83597 
3897 5 25.9024 14.2711 6.03717 
3996 5 24.4956 15.2817 7.83747 
4058 5 23.6845 16.5773 8.74145 
4591 6 27.7393 15.4552 5.75348 
4442 6 27.8143 15.7404 8.88039 
4700 6 32.6069 13.3895 5.81753 
3826 5 34.6136 14.3329 6.76585 
4297 5 33.8771 17.3977 10.9906 
3882 5 32.8582 18.0041 6.30127 
4177 5 30.1496 14.2897 10.0218 
4398 6 29.6685 13.8706 7.7637 
4192 5 35.6303 15.2942 16.3602 
4662 6 17.0177 19.3645 15.6662 
4743 6 1.52458 3.56893 13.6404 
4572 6 7.36489 5.09663 13.2992 
4382 6 10.7305 3.25123 11.472 
4687 6 10.5046 3.78463 12.3306 
4701 6 11.6689 2.42307 10.6622 
4285 5 10.9551 5.08107 12.2646 
3926 5 14.8814 2.38463 16.6288 
4652 6 11.9256 7.78939 15.0335 
4710 6 15.6281 5.22254 15.33 
4337 6 16.5212 2.75716 14.8394 
4396 6 11.3895 1.91957 12.2438 
3888 5 18.2662 3.12341 10.8918 
4232 5 22.8579 2.81522 10.7683 
3880 5 22.3531 0.166288 10.7494 
4332 6 20.2231 0.332205 11.9028 
3812 5 26.1108 3.96868 10.8685 
4719 6 26.5468 1.67179 11.7335 
4301 6 25.5187 3.11147 11.1648 
4325 6 28.0599 2.91759 16.1168 
4471 6 28.7077 2.87424 11.9914 
3918 5 22.2211 3.50203 14.5385 
4303 6 32.9684 4.58113 11.7618 
4280 5 29.0608 2.60763 13.0248 
4686 6 38.7129 6.81208 11.9833 
4596 6 36.2616 2.55628 12.1888 
4439 6 34.8066 1.84804 15.5427 
3951 5 32.8192 18.0527 17.6296 
4225 5 38.4232 6.94114 15.2096 
4606 6 35.4374 4.09615 11.5683 
4522 6 7.69973 12.2641 13.1851 
4292 5 10.3821 11.8997 15.1362 
4702 6 14.2913 5.22037 15.2024 
4142 5 15.1923 12.2244 15.1738 
4742 6 19.3876 8.02266 13.0874 
4149 5 25.7888 12.8313 12.2134 
4340 6 30.3234 6.91432 12.0096 
4764 6 32.0187 9.49267 11.5372 
4266 5 35.9889 11.9665 15.7439 
3841 5 39.0885 8.58577 15.5148 
4223 5 38.9274 10.0742 10.5265 
4326 6 35.8677 10.2811 13.8308 
4752 6 39.5773 8.08499 11.4331 
4361 6 18.6356 0.328234 20.9666 
3992 5 1.53856 18.725 10.8524 
3925 5 4.43237 17.277 12.7818 
4253 5 2.57095 14.1347 13.4658 
4030 5 38.7552 18.7733 13.0075 
4393 6 5.64981 19.0823 10.8263 
4035 5 9.57736 17.2616 11.4382 
4370 6 11.0298 13.4692 14.3849 
4623 6 11.8742 15.3922 13.7758 
4628 6 14.5896 1.32304 1.03828 
4617 6 14.2416 16.6627 12.3369 
4673 6 12.4637 18.0859 13.5614 
3995 5 15.1973 12.7349 14.1862 
4094 5 22.4646 17.501 14.8694 
4410 6 16.8309 12.0366 13.2394 
3836 5 35.8622 16.5212 15.2712 
4553 6 25.8474 14.9893 11.2969 
4342 6 27.0542 16.1352 13.944 
4737 6 31.0226 15.2657 11.1502 
4315 6 29.5957 13.9548 11.4884 
4723 6 29.3174 17.596 10.2767 
4081 5 35.267 14.218 15.7713 
4075 5 38.8246 13.5722 12.3121 
4305 6 34.9205 13.8713 14.0032 
3870 5 33.6774 19.0442 17.9449 
4135 5 1.11127 4.16692 18.1953 
4446 6 4.36693 2.79324 16.9567 
4474 6 0.348644 1.07047 20.9398 
4376 6 9.0131 4.11605 19.8975 
4278 5 12.0756 3.19832 16.747 
4624 6 9.2976 3.42823 16.7134 
4028 5 10.3745 6.12259 19.2656 
4780 6 7.89524 7.02471 16.6478 
4384 6 10.5958 2.00032 20.8157 
4273 5 14.1524 6.11791 16.9509 
4089 5 12.2083 8.09944 17.7333 
4773 6 14.2671 6.92037 19.9803 
4697 6 12.1575 4.79964 17.109 
4185 5 14.6494 3.73586 15.1646 
4433 6 15.1818 1.09805 15.5131 
3963 5 18.9868 5.73302 20.4698 
4746 6 21.5567 2.47705 15.0428 
4762 6 18.1043 0.31862 18.0472 
4119 5 21.2498 4.06033 19.4539 
4532 6 17.5258 1.4889 20.1972 
3954 5 27.132 3.07796 16.7754 
3909 5 25.6306 0.378858 19.5271 
4126 5 28.4274 3.10087 20.4488 
4077 5 24.4245 17.6061 19.9996 
4378 6 29.7878 1.71511 19.8349 
4121 5 38.7529 0.115707 20.1574 
4107 5 5.75393 8.29592 19.4906 
3885 5 2.33271 11.9461 15.2932 
3935 5 0.122158 11.4418 16.3817 
3937 5 7.83047 10.8119 20.2731 
4347 6 12.1563 9.17556 19.2186 
4380 6 12.2391 9.22777 16.0973 
4098 5 19.3698 10.7594 17.6179 
4458 6 19.272 7.49544 19.8971 
4437 6 25.3585 5.92389 16.2769 
3837 5 24.0615 9.75043 17.1497 
4194 5 25.2615 7.17061 17.8362 
3986 5 29.8629 8.89038 17.7987 
4745 6 29.7368 12.9094 16.5728 
4426 6 34.0725 13.5871 19.8601 
4594 6 37.2573 12.5357 20.55 
4210 5 36.2251 8.49261 19.656 
3823 5 27.7272 17.182 16.6972 
4363 6 35.7732 7.7042 16.1509 
4790 6 3.77723 16.0504 17.8396 
4235 5 3.40463 15.3206 18.8059 
3922 5 0.755796 18.2217 16.2212 
4375 6 0.871527 17.3698 17.8243 
4164 5 1.55534 17.7484 20.3303 
4076 5 39.9947 18.6677 17.4785 
4490 6 4.66667 18.6541 15.3521 
4130 5 12.0782 19.074 19.255 
3820 5 7.17109 17.1372 19.4952 
4336 6 7.88269 18.6789 18.663 
4635 6 27.5216 18.6059 16.2363 
4101 5 35.0941 19.9238 5.72798 
3932 5 0.584311 5.71103 23.3259 
4525 6 1.86851 4.68232 25.1124 
4517 6 0.366633 2.58724 21.876 
4069 5 7.0581 6.04896 22.3332 
4045 5 14.8566 3.87266 25.7153 
4481 6 12.0403 2.76575 24.8398 
4254 5 13.0024 4.48932 22.4194 
4656 6 15.1015 3.79914 23.6835 
4128 5 19.3572 4.04848 21.4397 
4090 5 23.4002 4.82553 25.6444 
4227 5 22.4868 3.11977 21.2583 
3831 5 27.83 4.54479 21.5955 
4316 6 30.4766 2.28902 23.5078 
4095 5 32.9006 5.09762 24.4441 
4362 6 33.1394 5.77539 22.741 
4568 6 33.0534 3.55569 23.2569 
4195 5 38.5876 18.7963 40.5944 
3804 5 34.9942 1.44661 23.4105 
4211 5 34.8668 6.41938 23.0154 
4404 6 34.9308 0.888704 21.907 
4799 6 5.68956 12.9832 27.4767 
4755 6 2.62242 10.3264 23.0664 
4709 6 5.54912 7.96687 24.9833 
4592 6 1.75227 8.25452 22.1499 
4374 6 1.1657 10.3513 22.3699 
4154 5 3.8994 15.6767 26.6286 
4339 6 8.14515 12.0034 23.3239 
4357 6 13.6307 11.1934 22.1191 
4465 6 18.0006 11.5086 25.4515 
4140 5 13.5823 10.2866 26.9513 
3974 5 18.4427 9.65758 26.9203 
4492 6 12.6086 9.64603 24.4958 
4110 5 10.6999 14.4416 24.7993 
4649 6 18.4139 12.2384 22.4591 
3993 5 25.4219 7.05124 27.1072 
4226 5 35.2852 9.42212 24.4068 
4274 5 0.176292 15.3517 25.7247 
4313 6 35.8705 16.5278 22.0338 
3908 5 1.75737 18.8707 26.9373 
4283 5 6.32315 13.9668 23.2597 
3968 5 5.02296 17.795 24.4138 
4529 6 5.76092 17.9272 23.7579 
4344 6 6.08135 13.2123 25.3214 
4086 5 9.98311 15.6499 24.1335 
3862 5 11.2314 16.0613 23.527 
4599 6 5.40075 15.0125 23.2761 
4539 6 15.8852 18.2766 25.2948 
4201 5 15.9658 16.8241 24.0507 
4084 5 16.25 18.0125 21.3517 
4144 5 22.5502 19.0674 22.2952 
4476 6 29.0431 17.1763 25.2862 
4037 5 36.6307 18.4067 25.2348 
4547 6 38.8833 16.639 21.9391 
4260 5 36.2796 17.0927 24.5768 
4368 6 3.78243 4.10706 28.3153 
4217 5 38.9113 0.402644 26.6274 
4071 5 7.68291 3.4757 29.8985 
4309 6 9.70953 5.43518 28.7485 
4139 5 6.51425 0.271438 28.5314 
4468 6 7.39551 4.68748 30.7306 
4403 6 8.68069 4.82094 29.9358 
4685 6 17.2038 7.61532 30.03 
4209 5 22.6656 6.11626 29.9079 
4478 6 23.0773 3.46496 31.2554 
3943 5 17.6986 3.28378 25.983 
4566 6 22.6587 0.897979 27.4055 
3976 5 27.7381 2.60498 26.7427 
4233 5 24.1689 3.65954 28.3997 
4576 6 23.6593 4.97909 30.0976 
4259 5 28.1731 3.39903 30.2712 
4319 6 26.8665 3.75497 25.0475 
4454 6 33.3307 4.75003 26.4335 
4484 6 28.4862 5.15006 31.344 
4679 6 30.6007 4.65609 29.4135 
4434 6 30.0215 4.18408 26.4922 
3977 5 38.2544 1.76943 29.0916 
4508 6 38.4901 0.465411 28.2037 
3972 5 38.3611 5.20542 28.3548 
3914 5 36.3602 10.2002 21.8404 
4129 5 3.32569 7.28194 26.8119 
3867 5 3.95068 8.51441 30.3107 
4783 6 8.35611 7.74468 31.0935 
4521 6 8.30628 8.15959 32.6562 
4546 6 11.6271 11.2029 30.0723 
3874 5 10.1656 9.88591 26.4822 
4176 5 17.2794 8.08094 27.7177 
4580 6 14.4456 7.51543 30.1595 
3890 5 12.709 12.416 28.7785 
4308 6 13.9051 12.1536 26.0336 
4026 5 13.2196 9.04123 27.1345 
4615 6 18.8691 9.58817 30.3532 
3860 5 17.2474 7.86341 28.9858 
3891 5 20.7313 3.90829 30.6045 
3984 5 24.0711 10.7396 29.4872 
4159 5 24.1487 12.2582 30.1388 
3895 5 26.3782 8.84218 30.8572 
3983 5 22.4163 8.49223 29.8991 
4419 6 30.0825 5.59564 29.2977 
4173 5 30.5153 14.3726 31.3212 
4741 6 28.4786 6.43617 30.7319 
4611 6 36.8634 11.5572 29.2521 
4735 6 35.1639 7.60553 29.9717 
4726 6 37.5687 7.59317 29.1449 
4067 5 1.3368 8.83369 27.5376 
4464 6 4.15465 17.3717 32.1611 
3801 5 5.51677 15.0888 28.2267 
4343 6 4.63382 15.708 27.4242 
4425 6 9.35759 15.7862 27.8256 
4708 6 9.35528 19.3666 28.0483 
4795 6 13.624 15.6983 32.5109 
4215 5 16.1138 14.9361 29.5785 
4457 6 24.8331 13.8267 27.8153 
4263 5 22.9534 15.8645 28.0811 
4675 6 31.7328 14.6758 29.7749 
3825 5 28.8755 13.9199 27.4933 
4355 6 32.0999 15.5914 25.5426 
4294 5 28.301 13.6765 30.0052 
4298 5 39.3274 15.7338 26.0369 
4796 6 38.7412 14.7076 30.9403 
3832 5 37.6711 16.2208 28.6736 
4399 6 34.2831 16.0028 27.7413 
3988 5 1.92132 3.41348 36.6601 
4295 5 10.7938 6.80437 34.4625 
4175 5 5.07281 0.369821 33.0062 
4789 6 8.3025 3.86315 30.8493 
4093 5 11.1164 3.25435 37.3163 
3964 5 8.33175 6.21728 36.5325 
4234 5 21.5457 0.632916 33.9947 
4664 6 17.149 5.99571 35.6123 
4218 5 20.5933 3.7125 35.6415 
4422 6 17.9202 6.6238 33.1477 
4017 5 33.5748 2.19621 33.2972 
4323 6 27.9045 6.40466 36.7726 
4721 6 33.6641 5.30231 35.316 
3819 5 36.6473 2.61588 36.5974 
4618 6 0.191437 4.01293 34.1429 
4287 5 1.52143 9.27616 36.7056 
4335 6 7.88453 13.868 36.0334 
4024 5 6.76782 8.92405 32.0534 
4724 6 10.3007 9.5155 35.8944 
3985 5 11.2653 11.3798 34.5757 
4269 5 17.8603 10.4157 34.5461 
4740 6 16.4901 9.49242 34.5009 
4712 6 17.0241 9.38003 31.9144 
4598 6 16.9609 8.30317 30.9833 
3868 5 19.1971 5.98165 34.636 
4187 5 27.3895 6.4643 32.7675 
4707 6 27.6352 10.6895 37.1941 
4477 6 22.264 13.0069 35.5818 
4757 6 23.632 10.1267 33.2895 
4114 5 32.1458 10.752 31.8853 
3811 5 27.3532 8.04466 31.8675 
4145 5 31.5793 12.7812 32.3688 
3952 5 37.6419 11.5629 33.3724 
3866 5 0.522534 8.66126 36.7171 
4429 6 38.5432 7.60525 35.6259 
4689 6 36.9969 12.7261 35.4276 
4677 6 1.6589 16.2249 33.0428 
4317 6 7.25408 15.874 36.4847 
4050 5 12.6868 17.2387 35.0389 
4423 6 8.58466 19.2983 36.6226 
4602 6 4.4479 18.2174 29.8352 
4798 6 15.5047 19.6372 35.6761 
4506 6 14.1166 13.912 33.7485 
4655 6 19.6733 15.5414 35.7156 
4778 6 19.9594 13.748 36.5513 
4597 6 22.4337 19.9357 35.0785 
4604 6 24.2545 14.5635 33.0618 
4782 6 26.0283 16.2341 37.2229 
4191 5 25.0105 15.413 31.9037 
4545 6 25.699 18.3769 34.2869 
4249 5 33.6751 19.5675 33.8848 
3821 5 3.10173 3.80616 36.7793 
4729 6 11.2338 4.13362 38.6282 
4638 6 6.15317 7.46473 39.3305 
4643 6 9.68494 0.955988 40.7739 
4588 6 5.57433 2.75789 39.6306 
4222 5 29.8671 0.237552 26.0548 
4670 6 14.6997 4.2004 37.9601 
4561 6 14.0275 3.93317 40.0197 
4346 6 19.4229 0.949441 40.1742 
4389 6 21.056 2.17752 38.3481 
4116 5 27.7122 6.85199 37.6996 
4640 6 25.3078 0.655805 39.7698 
4021 5 29.5399 5.50665 37.4261 
4351 6 31.2777 0.0990438 40.2964 
3858 5 30.5505 4.43716 37.9486 
4777 6 30.4743 5.74811 37.5796 
4774 6 34.7695 3.98699 40.9718 
4244 5 38.2388 2.78625 40.1261 
3902 5 3.05599 12.3647 39.1207 
4291 5 1.05139 7.68898 37.9917 
4676 6 6.79198 12.0029 39.3295 
4005 5 7.56429 8.98686 40.9935 
4236 5 17.1554 10.1256 40.2878 
3879 5 15.1427 12.511 37.2384 
4205 5 17.7774 12.5527 38.5227 
4023 5 19.4466 10.0479 39.1165 
4531 6 23.9724 7.49407 39.8815 
3991 5 25.057 12.3005 38.2328 
4168 5 25.1523 8.31657 40.4875 
4013 5 27.1706 7.88009 40.2811 
4718 6 28.1416 10.0405 39.195 
4650 6 27.4625 6.22581 38.8771 
3939 5 30.3125 14.139 37.0577 
4381 6 34.9547 11.8231 40.8391 
4181 5 38.2004 13.8051 40.1663 
4001 5 38.2634 13.1335 36.8457 
4052 5 37.3169 13.2657 37.7071 
4488 6 5.02519 17.4638 40.5676 
4141 5 4.1726 15.2391 40.6884 
3859 5 14.9415 15.1063 40.8096 
4501 6 13.2035 19.0377 38.3906 
4763 6 14.2819 15.2706 40.0582 
4619 6 15.7797 15.0056 40.164 
4265 5 12.4113 18.433 36.8621 
4651 6 22.3079 17.8325 40.8764 
4072 5 16.8692 16.2258 40.7259 
4736 6 27.7948 17.2608 38.2785 
4536 6 23.9587 19.4894 40.5855 
4483 6 24.4389 14.4362 40.2281 
4307 6 37.6067 15.1085 37.1294 
4239 5 0.71641 16.6962 37.4981 
4527 6 38.5146 15.0286 38.4112 
4663 6 5.79176 19.9386 24.3888 
4408 6 15.5038 1.4502 31.235 
4416 6 8.12028 15.0939 22.9617 
3933 5 16.7584 8.47076 22.4607 
4261 5 15.4236 19.2844 37.465 
4413 6 5.62497 3.25287 21.0362 
4043 5 23.3397 12.9945 21.6535 
4371 6 26.8537 19.6634 40.2997 
4579 6 8.43033 0.293868 38.9437 
3835 5 39.4312 2.07764 21.1234 
4257 5 12.2499 19.7984 28.4694 
4544 6 31.3366 0.0958099 23.4844 
4153 5 3.18192 22.8686 2.88742 
4405 6 23.7881 27.1404 20.0341 
4692 6 8.42737 25.0506 1.86025 
3829 5 5.75935 20.1144 3.17007 
4386 6 7.82762 22.5635 1.38296 
4171 5 7.51212 26.0449 5.00924 
3911 5 8.17252 21.0413 5.06826 
4631 6 13.0093 20.5145 2.22885 
4470 6 15.4076 26.0546 1.55658 
3981 5 16.6333 23.4381 3.52494 
3833 5 16.9536 22.0377 5.16299 
3883 5 21.7525 20.0098 1.13695 
4499 6 18.403 25.3773 1.19122 
4198 5 18.6226 22.3186 1.33284 
4166 5 38.599 26.6185 19.4361 
4006 5 17.0147 21.1162 3.87993 
4456 6 16.0786 21.1377 5.31767 
4178 5 23.4459 22.5062 3.46163 
4769 6 10.2576 37.2193 18.5619 
4750 6 24.6586 23.7367 3.82224 
4042 5 33.8876 38.6085 20.5214 
4152 5 21.9369 21.494 1.24345 
4586 6 30.4578 26.3659 1.65902 
4744 6 34.4475 24.4889 2.32349 
4472 6 34.9585 22.5791 1.62457 
4004 5 35.4232 24.3882 5.33459 
3818 5 39.0724 23.5042 1.14749 
4698 6 35.8644 21.4003 3.33588 
4118 5 3.69148 30.3248 1.58167 
4120 5 1.51375 28.771 1.19344 
3844 5 2.61428 28.6588 4.77797 
4064 5 9.17255 30.7872 3.23617 
4104 5 11.8537 31.5991 6.0421 
3869 5 9.95986 32.6948 1.56223 
4787 6 16.3065 27.5545 2.90296 
4341 6 27.683 29.1385 1.07124 
4500 6 24.4671 30.3478 1.23234 
4009 5 25.6334 28.0432 4.95794 
4510 6 28.1487 31.6725 3.18617 
4111 5 30.9701 32.2064 4.46375 
3973 5 30.4373 31.5143 2.56976 
4163 5 34.9216 31.2132 4.70772 
3989 5 38.7374 32.4444 2.61243 
4421 6 36.9739 26.755 5.85537 
3906 5 4.3755 35.2839 2.56051 
4713 6 3.14907 34.4267 3.01554 
3871 5 1.52768 34.805 1.53888 
4047 5 5.06353 35.4065 3.42359 
3940 5 3.44725 37.6033 6.04447 
3830 5 5.31721 36.3572 1.42983 
4085 5 21.3996 20.3764 7.77924 
3961 5 4.88067 36.8933 7.67081 
4582 6 4.2047 37.0932 2.80898 
4440 6 3.05113 36.7465 3.78235 
4097 5 6.89178 32.9614 2.27252 
4793 6 10.73 35.8678 4.34705 
4498 6 6.69793 37.1836 5.7725 
3979 5 5.7316 35.1369 2.40434 
4196 5 10.2041 35.1635 3.46749 
4059 5 12.4989 34.6165 1.49371 
4507 6 17.0943 38.2729 3.46234 
3873 5 14.3377 33.9912 1.21293 
3966 5 14.0259 34.174 20.8847 
3896 5 32.9465 26.8153 20.5406 
4583 6 14.6478 34.4374 2.34647 
4032 5 14.8594 38.3998 4.72678 
4277 5 17.3577 39.5578 1.17356 
4055 5 17.1579 33.2926 2.94407 
4189 5 17.3473 33.266 4.55987 
4034 5 18.3695 39.9172 1.09159 
3813 5 21.5308 34.6679 1.17635 
4199 5 18.291 33.7983 2.78219 
4447 6 18.5889 39.9527 19.0319 
4691 6 26.1908 35.2734 4.15295 
4007 5 25.2741 38.319 1.26777 
4714 6 17.1291 32.753 20.7674 
3960 5 35.2156 29.304 19.6186 
4155 5 31.0941 33.039 5.26623 
4706 6 32.504 34.9781 3.70964 
4300 5 29.1892 37.9954 5.5499 
4489 6 31.7525 38.272 2.76078 
4479 6 22.6612 20.8535 11.3477 
4183 5 35.2724 35.5927 1.49847 
4776 6 0.474618 33.2049 1.79533 
4450 6 37.6798 34.1697 5.97495 
3947 5 37.9514 34.3934 2.38041 
4754 6 38.8026 33.9929 4.96244 
4513 6 39.3338 35.6626 3.27823 
4252 5 36.9153 35.8127 2.57475 
4302 6 4.07074 24.1391 9.2024 
3893 5 0.868027 26.1162 7.8878 
3810 5 4.02191 22.3757 3.53502 
4296 5 0.542469 25.5007 9.44631 
4134 5 3.84232 22.2683 8.84618 
4184 5 1.93856 21.4485 10.0079 
4112 5 7.43582 21.2595 8.66876 
3978 5 12.2413 24.2574 7.3023 
4480 6 13.8716 23.0115 8.3424 
4062 5 15.8852 23.5004 10.4069 
4214 5 13.9374 24.6645 7.58435 
3904 5 16.0126 24.4383 4.9691 
4605 6 14.6286 20.2149 5.12003 
4512 6 21.2393 25.5155 7.88165 
4002 5 21.7395 22.9018 6.67861 
3899 5 25.5226 21.1867 10.4789 
4448 6 24.4806 20.2721 10.3236 
4102 5 24.2205 22.8698 8.86169 
3971 5 30.2355 26.6889 6.96073 
4392 6 38.365 21.8615 6.40901 
3915 5 34.687 20.7008 6.81101 
3877 5 37.9275 21.099 7.51729 
4057 5 39.8847 23.3526 5.28733 
4113 5 38.8238 22.3272 8.74463 
4600 6 39.9334 20.0384 8.54585 
3938 5 2.20423 29.797 5.58442 
3864 5 0.492057 28.3458 9.34553 
4046 5 1.86813 27.8011 9.78792 
4230 5 8.78102 30.9224 6.53089 
4800 6 9.64309 25.7056 8.34097 
4068 5 6.80476 28.3201 5.47203 
4626 6 8.62337 26.1216 9.4336 
4538 6 11.7561 31.794 9.37601 
4674 6 15.8313 30.489 6.95214 
3999 5 13.0094 28.4069 8.56709 
4091 5 21.5185 31.2599 9.47944 
4391 6 16.0697 31.1009 9.64824 
4411 6 21.2606 31.5365 6.22964 
4282 5 28.2613 26.4682 8.97256 
3816 5 25.4925 33.5654 10.6579 
4705 6 34.0227 27.3743 5.14255 
4559 6 29.3453 32.019 6.04409 
4221 5 32.2166 29.1196 11.5602 
4443 6 29.5922 32.8509 9.63741 
4060 5 30.1302 33.5209 8.54118 
4031 5 28.7981 33.1139 8.61891 
4186 5 29.438 30.3505 4.3202 
3892 5 36.9262 32.8331 9.42401 
4019 5 37.9118 30.4951 6.79236 
3881 5 34.435 31.4596 6.85927 
3807 5 37.0391 29.8277 6.95515 
3898 5 6.73703 32.8035 9.16679 
4749 6 2.13147 35.393 11.223 
4659 6 3.20168 35.5893 8.4146 
4748 6 11.1903 36.2909 7.39253 
4379 6 6.07644 35.3401 7.96497 
4633 6 7.41728 38.3698 9.18322 
4406 6 10.5623 32.7807 6.55122 
4516 6 13.2624 37.9196 9.80894 
3929 5 14.9189 35.0016 8.38576 
4385 6 23.2489 38.3442 9.63845 
4738 6 27.9924 38.4367 8.44337 
4578 6 24.458 38.6442 7.81535 
4530 6 25.2167 33.3139 7.30444 
4682 6 36.1476 39.1189 6.17269 
4304 6 38.9667 35.5261 9.43452 
4049 5 31.1642 39.6688 14.6161 
3839 5 37.7725 38.6656 8.58136 
3921 5 38.0469 36.4958 5.63579 
4765 6 37.7618 36.2038 9.00033 
4695 6 24.1667 20.9333 20.7432 
4394 6 4.78171 25.3152 14.046 
4680 6 2.04067 23.1526 12.3764 
4124 5 39.9743 21.3113 10.7789 
4103 5 6.18812 27.0841 12.0122 
4589 6 16.7024 26.1363 10.9446 
4312 6 10.8107 21.8967 11.2504 
4699 6 20.2097 23.4987 14.1611 
3827 5 20.9586 21.0593 14.8519 
4453 6 18.0624 25.9404 10.5687 
3945 5 25.4643 20.0133 10.8974 
4621 6 26.6224 24.9186 13.7179 
4213 5 25.2883 26.557 14.0464 
4730 6 33.7618 22.3224 11.8141 
4158 5 38.2484 22.7663 13.8542 
4074 5 35.1763 27.0022 13.4192 
4400 6 37.8165 23.6126 14.7782 
4629 6 26.461 24.441 20.8635 
4248 5 4.2317 30.3973 12.4223 
4683 6 4.15159 30.7989 14.8677 
4704 6 0.970951 30.5157 13.154 
3934 5 8.44057 31.8599 10.5817 
3802 5 6.96483 33.6026 14.957 
4027 5 10.0466 31.7638 13.054 
4267 5 8.08211 30.0062 14.5838 
4452 6 4.35662 32.1817 12.5805 
3842 5 8.89881 29.3661 14.1806 
3894 5 7.70474 25.7567 10.4723 
4065 5 7.73014 31.6587 14.9964 
4364 6 13.0124 27.2058 15.0663 
3805 5 16.0681 28.9249 12.5822 
4504 6 16.593 29.2189 11.4779 
4518 6 13.459 32.416 14.565 
3855 5 14.566 33.1726 10.2776 
3806 5 11.3426 28.1603 15.7034 
4310 6 16.6616 31.6059 14.3987 
4279 5 21.6313 28.9681 13.5102 
4245 5 16.903 31.9124 12.1086 
4644 6 18.7936 28.9376 12.8863 
4056 5 18.6132 26.598 15.3081 
4353 6 17.2837 26.5839 15.1533 
3824 5 22.3073 35.2137 15.3008 
4669 6 34.0143 28.4946 10.1776 
4495 6 30.041 27.4584 12.4388 
4387 6 34.4429 28.6119 15.7043 
4241 5 33.1695 32.4312 14.5709 
3847 5 39.9087 28.5995 15.9068 
3872 5 38.3392 27.0904 15.341 
4190 5 38.746 26.5577 11.9788 
4250 5 39.3663 32.3925 15.5617 
4441 6 34.9705 33.5436 11.8076 
4014 5 36.6461 28.9187 15.6127 
4797 6 4.82415 34.7988 15.8117 
4169 5 0.82751 36.801 12.1954 
4514 6 14.4486 35.9415 9.82206 
4365 6 16.5962 37.8463 11.8023 
4612 6 20.8077 36.2991 15.0083 
3845 5 20.7923 37.376 14.588 
4000 5 18.1834 38.126 12.9924 
4451 6 24.7877 36.2856 12.5216 
4350 6 38.8213 37.7897 12.2537 
4634 6 39.6625 36.1871 14.32 
4715 6 0.241036 33.6355 15.6905 
4585 6 39.3334 37.8697 15.1854 
4197 5 38.2754 37.1645 15.3645 
3969 5 38.7503 36.7707 10.8366 
4358 6 3.39432 26.8732 18.3429 
4482 6 5.45053 21.8207 18.5258 
4165 5 16.9762 23.4765 16.5186 
4352 6 14.6012 24.1258 18.5636 
4029 5 14.4955 22.3268 18.3795 
3887 5 13.1259 23.0211 16.7726 
3840 5 20.4851 26.7725 19.406 
3828 5 19.6532 25.6403 19.4561 
4417 6 23.3127 26.0294 18.6087 
4571 6 27.1396 24.6753 18.9889 
3907 5 22.3306 24.7545 18.4737 
4678 6 25.7151 21.8411 17.7555 
4020 5 31.3425 22.7499 19.085 
4460 6 33.7771 24.7996 19.3663 
4397 6 37.1007 25.443 16.5619 
4096 5 1.38888 30.7552 18.2846 
4427 6 13.2638 20.4869 15.3997 
4377 6 5.48384 29.4318 18.8038 
4610 6 14.8033 29.2864 19.4913 
4487 6 13.25 31.8289 20.0194 
3946 5 17.5818 28.8342 20.5443 
3850 5 19.5524 28.3725 18.7389 
4775 6 29.1893 27.1302 17.6763 
4613 6 24.7999 30.0594 20.9377 
4271 5 25.6181 30.0498 20.0755 
3927 5 33.7653 32.6854 18.7983 
4486 6 31.0939 31.5259 16.7083 
3905 5 33.7698 28.0803 16.7475 
4174 5 31.1807 31.4214 20.5732 
3861 5 32.436 28.4973 17.4666 
4246 5 37.7417 31.2069 19.9615 
3919 5 33.45 30.941 17.0065 
4690 6 8.10555 36.3834 18.1015 
4367 6 12.3571 36.7562 20.874 
4794 6 15.7501 35.0487 19.6081 
3953 5 19.9401 38.6972 18.8306 
4237 5 20.7574 33.8166 19.6547 
4435 6 18.3426 34.7721 18.1906 
4637 6 18.4791 39.3031 17.7015 
4459 6 29.5224 36.0761 19.6246 
4475 6 33.5356 37.1014 17.7473 
4063 5 36.0579 36.0734 16.8499 
3856 5 35.7289 39.5968 20.0187 
4264 5 35.2021 35.0556 20.1904 
4161 5 37.7509 35.4323 19.6391 
3822 5 38.4327 38.7552 19.0195 
3863 5 38.545 39.8364 16.4177 
4461 6 1.18322 35.3952 15.9867 
4033 5 36.2007 35.522 20.02 
4693 6 5.01642 20.2133 9.83168 
3876 5 21.9522 39.5449 6.96422 
3930 5 0.860617 22.2648 25.684 
3923 5 2.89263 25.6232 21.8746 
4558 6 9.84102 22.7144 21.4567 
4771 6 7.59415 26.9049 22.1473 
4251 5 9.54776 23.1809 25.0255 
3944 5 8.77316 24.2125 24.5761 
4203 5 7.079 23.7218 23.3435 
4281 5 7.734 25.9148 23.0062 
4630 6 14.7384 23.4383 22.1982 
3958 5 13.4117 20.097 23.853 
3900 5 20.7727 23.4362 25.9099 
4577 6 13.0923 20.3854 21.0753 
4581 6 28.4777 21.2663 23.2099 
4345 6 23.4803 27.1102 25.5097 
4372 6 24.1978 22.259 27.0926 
4216 5 31.0667 26.3114 24.0234 
4567 6 29.4221 22.5863 26.1313 
4008 5 29.6254 20.8299 22.2687 
4609 6 31.8204 22.5002 22.8846 
4587 6 9.40702 20.7555 25.0437 
3942 5 29.4701 21.9651 23.7333 
4415 6 39.0039 24.0591 23.5206 
3998 5 36.7973 23.8898 26.2175 
4338 6 34.9513 25.9182 26.2878 
3843 5 36.4507 23.578 21.029 
4642 6 3.28137 30.5085 23.5592 
4520 6 2.79075 32.6899 22.6545 
4716 6 1.0627 29.4255 26.1096 
4407 6 2.82269 33.1407 25.0718 
3853 5 0.529572 31.1837 21.5129 
4092 5 2.23787 27.891 23.6008 
4327 6 9.14705 29.8771 23.5336 
4436 6 17.3474 31.7067 24.5093 
3965 5 13.6707 32.8252 24.2732 
4759 6 15.2628 32.9177 24.7932 
4288 5 16.5688 33.5916 23.1502 
4272 5 16.9095 27.7682 22.8646 
4575 6 19.6876 29.5172 22.8879 
4167 5 22.3246 27.1571 26.7726 
4147 5 17.9102 32.2816 25.0403 
4734 6 17.1535 33.2994 25.0557 
4788 6 26.338 26.2757 21.8021 
3970 5 24.496 29.8258 23.4479 
4321 6 27.6439 27.2379 24.7493 
4255 5 38.1491 33.7727 39.5029 
4061 5 23.0832 29.614 24.4406 
4117 5 26.1262 29.0273 24.7266 
3941 5 31.6554 29.3553 23.7873 
4694 6 30.5204 27.7556 26.778 
4473 6 34.4931 32.5817 23.6714 
4672 6 32.215 29.7118 24.9711 
4557 6 37.163 29.1307 26.3901 
4661 6 37.2664 32.0797 23.8523 
4016 5 35.3264 29.7941 22.9899 
4462 6 0.748716 34.542 24.2303 
4556 6 11.3622 33.8677 23.1944 
3917 5 7.03426 39.0981 22.7842 
4331 6 7.48957 36.2684 25.6599 
4012 5 1.87399 20.3848 25.702 
4574 6 24.0902 35.1778 22.1808 
4549 6 8.31917 30.6687 21.5701 
4318 6 24.1984 39.6365 21.4002 
4212 5 35.4121 32.6455 22.886 
4781 6 6.07764 20.9952 27.8439 
4563 6 5.02887 25.0485 31.7008 
3878 5 4.41263 20.4031 27.543 
4366 6 14.358 22.2568 30.9573 
4711 6 13.0806 22.4623 31.8199 
4728 6 14.341 23.2272 31.9829 
4258 5 21.1589 23.669 30.6748 
4122 5 17.8501 22.9406 30.7893 
4667 6 28.213 23.3026 31.4935 
3955 5 27.4924 22.0131 27.2077 
4108 5 25.0468 23.8496 26.9544 
4275 5 22.5522 23.9558 30.6494 
4768 6 30.2844 22.6401 29.5951 
4660 6 31.0998 26.4787 27.6393 
4011 5 32.2175 20.6079 25.6431 
4455 6 28.73 21.3018 27.4207 
4038 5 39.4943 23.9674 31.5744 
4648 6 1.3873 27.9206 30.8234 
4018 5 0.733383 30.6485 28.1007 
4395 6 1.661 30.8672 30.0212 
4010 5 6.76727 31.5577 30.0342 
4627 6 4.73439 27.9618 29.6085 
4219 5 8.25711 29.4985 28.8815 
3865 5 5.94588 28.8737 28.406 
4088 5 12.7193 33.2033 26.8237 
4106 5 14.8304 30.7733 29.9568 
4467 6 14.6295 30.9117 24.048 
4497 6 21.5829 29.7071 30.4758 
4151 5 20.6992 32.2078 29.9032 
4160 5 17.1276 30.9983 26.9471 
4354 6 21.19 32.3768 28.0695 
4519 6 25.1886 29.4812 29.9915 
4048 5 24.7474 28.295 26.4715 
3913 5 26.9778 28.2309 31.3239 
4722 6 22.7912 29.0334 27.7049 
4157 5 26.3891 30.1522 27.5717 
4136 5 31.1224 29.4966 30.0887 
3889 5 31.0793 27.0242 29.4678 
4369 6 34.6861 27.5687 27.2296 
4220 5 36.9009 26.3632 31.5499 
4593 6 5.88678 36.2392 30.5265 
3815 5 5.19633 36.9519 32.503 
4505 6 15.7044 38.0334 30.2434 
3975 5 13.0777 34.3841 27.6525 
4696 6 16.9853 35.1199 26.6053 
4569 6 14.2814 39.7037 26.4634 
4193 5 18.8447 38.4087 29.1785 
4445 6 29.27 37.1622 27.6407 
4753 6 28.437 37.3669 25.9045 
4620 6 26.2831 36.2936 30.8234 
4632 6 26.4148 38.6883 27.5581 
4684 6 28.9263 33.9628 26.8059 
4665 6 31.1292 39.4229 30.3661 
4515 6 31.4188 32.9993 26.4668 
4306 6 35.4577 35.7735 28.5541 
4524 6 39.9472 38.8269 26.3503 
4466 6 8.40118 20.479 34.3139 
3857 5 20.9235 27.1976 32.5391 
4666 6 17.1895 20.1156 32.6128 
4200 5 20.2463 25.3879 34.0732 
3990 5 20.436 24.6596 32.3948 
4555 6 28.2368 22.3291 35.8767 
4703 6 33.2178 24.9317 36.7412 
3959 5 34.181 25.9204 30.9436 
4314 6 31.9042 22.0474 31.8825 
4503 6 36.1529 22.4435 34.1889 
4542 6 39.5243 22.8299 34.4684 
3949 5 37.1592 23.0536 33.0751 
4224 5 1.32418 31.558 35.8213 
3957 5 1.3873 32.729 35.5901 
3809 5 6.84489 30.7862 34.3822 
4731 6 11.4847 30.4217 31.8581 
3920 5 15.264 33.8747 32.4458 
4320 6 16.7363 30.9688 33.7401 
4792 6 14.653 26.7741 36.4543 
3854 5 18.9574 29.5102 37.3112 
4401 6 19.1281 27.5166 34.1239 
4146 5 18.8027 27.0386 32.7719 
4601 6 27.4746 26.6624 35.7415 
3950 5 24.4476 28.3917 36.206 
4070 5 32.383 31.308 35.3522 
4053 5 33.0826 30.3692 36.8694 
4526 6 39.3645 32.6175 37.3444 
4284 5 35.9962 33.2272 33.9145 
3808 5 37.1079 29.2932 31.8377 
4668 6 1.5941 34.9073 35.6245 
3924 5 3.59482 38.0398 33.9089 
4428 6 9.65029 33.0553 35.8569 
4290 5 13.4957 35.226 36.73 
4646 6 17.1609 34.6882 36.2891 
4299 5 12.092 39.8107 32.0066 
4138 5 0.27522 39.7037 37.3088 
4051 5 15.1289 39.1545 32.4723 
4658 6 21.7232 34.5445 34.9983 