ITEM: TIMESTEP
5100
ITEM: NUMBER OF ATOMS
1000
ITEM: BOX BOUNDS pp pp ff
0 40
0 40
0 42
ITEM: ATOMS id type x y z 
3434 4 2.02287 4.40141 3.45697 
3231 4 0.719611 1.55687 3.02034 
3649 4 4.24386 1.71607 3.95686 
3374 4 2.43918 18.6728 20.5305 
3082 4 6.27205 3.51613 5.82651 
3651 4 2.97952 1.60551 1.32682 
3469 4 5.29297 5.11177 4.18314 
3510 4 4.22505 1.88879 2.69299 
3294 4 17.8358 16.3248 20.6715 
3084 4 30.1763 0.108962 3.77624 
3369 4 9.16678 5.10499 1.11576 
3539 4 6.19097 4.15867 1.91369 
3554 4 6.89524 1.60059 4.52254 
3679 4 14.397 19.0357 3.4092 
3727 4 7.26292 4.99003 1.09528 
3782 4 7.45275 7.38972 6.34717 
3163 4 8.60371 4.76548 5.56785 
3087 4 8.16983 1.48264 5.74668 
3088 4 4.9615 1.51309 1.18939 
3194 4 9.58538 3.58206 3.52124 
3286 4 36.6125 19.9107 2.55721 
3431 4 17.2362 2.38142 1.04341 
3486 4 15.1533 1.97564 4.476 
3118 4 13.0023 4.60033 4.926 
3705 4 12.7666 1.37601 1.90077 
3621 4 16.8367 2.41947 3.12494 
3429 4 21.621 4.35299 1.21053 
3300 4 22.6027 0.137358 2.78139 
3447 4 18.6462 5.30526 5.08248 
2947 4 19.074 6.40006 2.31673 
2908 4 17.1887 4.41226 3.37086 
2867 4 24.6378 0.427998 6.01483 
2873 4 25.7239 2.44415 3.30885 
3012 4 22.5616 0.812632 5.00479 
3445 4 9.75533 6.28188 20.0881 
3676 4 25.1628 2.32289 1.18633 
3182 4 23.3033 1.94689 2.96136 
3089 4 38.0519 13.7274 16.4654 
3150 4 30.5058 2.59394 1.46239 
3399 4 33.0071 2.42746 4.71795 
3747 4 32.441 6.80355 4.2605 
3065 4 33.3064 4.30548 1.67239 
3075 4 33.8229 2.29899 5.37005 
3006 4 30.8951 4.50365 4.71655 
3176 4 35.8408 2.36596 5.15075 
3114 4 37.7287 5.61309 6.21035 
3567 4 37.233 17.7716 20.4017 
3141 4 35.4562 1.51167 2.93979 
3661 4 35.9148 0.872152 4.72063 
3559 4 37.2326 4.8252 2.88632 
3408 4 37.0641 3.76391 3.18888 
3257 4 39.4103 3.29339 2.96737 
3022 4 4.76456 10.4489 2.90206 
3097 4 0.510308 7.76847 2.77371 
3581 4 2.25695 8.32219 2.40804 
3215 4 0.912156 9.63487 3.37124 
3220 4 1.01293 13.3535 1.69864 
3670 4 4.79894 8.26858 3.21678 
3016 4 11.7675 7.07982 3.09646 
2863 4 8.93029 11.1065 1.76572 
3091 4 9.94799 11.6547 3.53551 
3170 4 9.83807 10.6994 4.4979 
3216 4 11.3758 11.1181 4.49915 
3770 4 3.96746 6.09195 1.50213 
3672 4 6.12206 9.11703 1.70566 
3147 4 16.0417 11.0688 3.13479 
3361 4 16.0913 7.79732 4.84611 
3103 4 15.2506 6.48854 1.18884 
3363 4 18.1765 9.2652 3.10956 
3319 4 15.4851 12.8088 1.54642 
3081 4 22.7462 6.60881 3.03779 
3653 4 23.1149 10.1014 1.85326 
3573 4 22.6593 5.81953 4.02643 
2916 4 19.5545 7.29946 4.0345 
3324 4 21.8418 8.91273 1.14774 
3304 4 21.6234 12.4021 4.20681 
3687 4 20.8889 10.6696 3.95633 
3514 4 25.8103 11.3496 1.1413 
3052 4 26.1003 5.26923 2.88379 
3492 4 28.2541 15.2092 1.10861 
3218 4 26.4183 7.92243 3.02582 
2848 4 30.0966 7.03207 3.81599 
2872 4 25.3198 11.7708 5.32031 
2909 4 26.4406 9.35388 1.3292 
2879 4 26.177 8.99306 7.90096 
3019 4 28.6044 11.3617 3.76084 
3228 4 35.517 10.0139 5.96799 
3246 4 31.9735 7.33019 5.19205 
3160 4 35.0461 7.73194 2.89155 
3152 4 28.1333 9.21029 2.31575 
3534 4 31.0931 7.04729 4.16701 
3311 4 37.5409 8.42591 5.61063 
3466 4 0.332122 9.36146 4.53357 
3379 4 37.2892 11.4669 2.84046 
2802 4 38.1042 7.21416 3.21532 
2806 4 38.1095 8.81318 4.55208 
3106 4 38.5566 12.0852 4.78701 
3773 4 39.1817 14.7481 2.49973 
2900 4 1.88375 15.7559 1.53511 
3249 4 5.11558 15.1874 3.97547 
3185 4 4.1361 14.8616 3.02086 
3704 4 38.5265 18.1882 2.86922 
3251 4 39.2267 20.0246 7.22551 
2913 4 39.7025 14.1848 1.63018 
3371 4 1.70314 17.5005 1.25406 
3788 4 7.99806 19.0545 1.39911 
3262 4 11.5847 13.2431 3.83865 
3124 4 5.71739 18.6723 2.63009 
3330 4 7.41183 14.9944 3.37892 
3566 4 10.6892 14.6865 4.70147 
3726 4 4.91994 17.7475 1.90121 
3341 4 6.60884 14.7059 1.78507 
3153 4 8.78457 17.1875 1.49615 
3612 4 7.37741 17.2771 1.06832 
2862 4 23.8947 17.6814 19.6957 
3046 4 11.8116 19.774 2.57075 
3188 4 10.6509 16.9152 2.64313 
3505 4 13.809 15.705 2.84279 
2993 4 14.3885 15.7333 4.45709 
3134 4 15.468 15.3405 4.20087 
3707 4 17.4254 18.6518 17.4346 
2894 4 15.8301 17.5164 4.01742 
3359 4 14.9067 1.52795 16.796 
3531 4 14.8049 14.0509 6.32098 
3734 4 14.2947 18.7858 6.27161 
3327 4 19.9418 15.5672 2.46856 
3608 4 20.9951 16.4352 1.35669 
2816 4 20.1879 15.8062 4.78822 
3696 4 20.5377 13.0639 1.96588 
2990 4 27.1014 16.2421 15.0622 
3214 4 23.4442 14.527 1.90604 
2828 4 23.9703 17.6902 5.31656 
3611 4 29.3779 19.6654 3.99391 
3464 4 23.1012 17.7468 2.98871 
3168 4 24.8618 15.7646 3.00354 
3668 4 23.6625 19.1244 3.10114 
3266 4 27.5877 17.8877 1.01926 
3494 4 24.2562 14.7202 4.31889 
3701 4 10.9132 19.9133 3.96638 
2815 4 29.6101 19.3651 2.38415 
2890 4 28.7912 16.6717 6.60213 
3524 4 34.052 17.0767 4.90806 
3703 4 28.9375 18.0063 7.07522 
2954 4 30.4175 14.4387 3.90049 
3151 4 30.1123 18.1312 4.29277 
3174 4 1.08637 14.4842 2.47734 
2871 4 32.9264 19.4159 1.23079 
3061 4 39.6795 19.7322 2.97184 
2860 4 37.0776 18.6582 1.88454 
3236 4 37.2937 14.352 4.60506 
3395 4 35.8421 19.2804 1.85647 
3265 4 21.676 19.8253 8.99479 
3718 4 1.50194 0.178756 8.60842 
3736 4 26.0076 13.4231 16.2556 
3761 4 21.023 1.35103 2.83659 
3540 4 2.97952 1.09735 8.9137 
2838 4 0.232556 5.26304 7.82803 
3291 4 10.5523 4.75245 8.33984 
3754 4 24.0398 13.5602 19.2934 
3487 4 9.9235 2.78931 7.46001 
3156 4 10.0469 1.2235 7.76343 
3261 4 10.2668 4.17887 9.45762 
2953 4 10.1761 4.74645 10.3902 
3708 4 10.0194 0.822766 10.0047 
3572 4 12.6055 5.43723 7.78386 
3241 4 17.4261 5.14319 4.97787 
3777 4 17.0687 1.27866 6.5384 
3274 4 20.9182 7.87135 5.23491 
2827 4 18.5847 4.75183 7.12331 
2987 4 18.7149 7.00079 8.73946 
3547 4 16.5567 7.68364 10.5942 
3338 4 19.6292 6.02495 9.79612 
3633 4 22.7573 6.66418 9.45392 
3589 4 27.0334 3.64313 5.43792 
3585 4 38.6644 2.58457 14.6075 
3602 4 23.6041 13.0683 18.4559 
3436 4 25.7524 5.06968 7.95176 
3032 4 30.0304 5.01564 5.16989 
3787 4 25.9144 3.52071 8.08329 
3588 4 11.2866 18.6016 9.80738 
3072 4 24.276 6.54113 9.8714 
3498 4 25.2089 0.241474 7.31111 
3225 4 22.1487 1.94482 5.80361 
3191 4 27.7423 3.77609 9.23679 
3033 4 27.1104 6.67968 5.43103 
2922 4 33.9004 3.43855 7.84999 
3063 4 30.219 5.35669 7.40852 
3367 4 33.2585 5.78681 6.57145 
2969 4 29.9098 2.74492 7.18853 
3504 4 31.9769 3.69014 7.03557 
3597 4 34.4836 11.7433 18.9248 
3457 4 32.4179 2.20325 11.362 
3715 4 28.8474 4.53662 7.93998 
3154 4 30.8298 1.29482 7.48436 
3398 4 35.9524 4.08133 9.56208 
3268 4 34.4488 4.2612 8.04314 
3368 4 39.0776 6.31836 8.09258 
3664 4 39.2306 4.21007 5.69123 
3292 4 35.8669 3.37725 7.4026 
3553 4 36.0393 2.98597 10.017 
3427 4 34.1941 4.71627 5.79029 
3629 4 36.8005 4.8774 9.3497 
3798 4 34.4299 4.02672 9.36586 
2941 4 35.1095 5.24578 4.17889 
3695 4 4.44834 10.4701 8.81148 
3463 4 2.52662 9.67021 5.4238 
3772 4 0.318655 10.251 7.52677 
3043 4 2.4034 12.1347 5.07241 
3536 4 2.4575 13.1136 9.52086 
2859 4 3.01638 7.09215 5.09801 
2904 4 2.93427 8.52906 7.19506 
3008 4 4.36111 7.03461 5.16929 
3638 4 1.90445 10.6405 7.04324 
3090 4 39.3795 6.77152 9.96192 
3015 4 9.69967 10.6328 9.81483 
3200 4 10.0205 9.02632 8.63967 
2831 4 8.32655 8.99999 3.57246 
3024 4 8.01205 7.08945 9.18041 
3669 4 7.2826 11.5242 8.04494 
3556 4 7.43535 10.8594 8.9546 
3095 4 10.1445 10.0429 5.2208 
2906 4 13.8194 8.46289 6.94532 
3184 4 13.579 5.66209 5.00005 
2981 4 11.9543 11.8194 9.74426 
2878 4 12.9215 10.8339 8.8345 
2845 4 17.5614 9.28963 7.13767 
3757 4 23.2589 10.6287 7.10771 
3521 4 18.283 9.1248 5.07286 
3488 4 18.751 7.571 7.66207 
3678 4 21.3247 10.9509 7.11295 
2843 4 22.3773 9.11566 9.64624 
3230 4 17.8741 11.3226 6.26458 
3289 4 16.3396 16.334 7.06155 
3692 4 23.6649 9.49494 6.72526 
2917 4 24.2539 11.8248 4.49587 
3460 4 25.6632 5.98699 9.63758 
3465 4 21.6433 12.2505 9.29842 
3617 4 23.9562 9.63672 5.10274 
3546 4 26.4369 13.6631 7.32533 
3229 4 21.7312 9.67098 6.74763 
3346 4 32.0534 10.2871 5.68431 
3003 4 31.1434 10.266 8.23845 
3321 4 30.1014 11.8193 6.2522 
3800 4 30.6721 7.07506 7.57221 
3196 4 29.2625 10.9827 6.35134 
3125 4 31.2735 9.97809 10.5346 
3765 4 28.9706 11.8932 5.81782 
3222 4 33.8372 9.52117 7.31941 
3028 4 38.6892 6.87134 10.9226 
3625 4 35.2543 7.12514 11.2061 
3049 4 38.0773 12.0304 7.1772 
3503 4 33.304 10.4211 6.62102 
2975 4 37.2492 7.98356 7.49422 
3614 4 35.5682 11.7521 8.47881 
3127 4 39.6792 8.48781 9.36626 
3468 4 37.2381 11.8646 6.37733 
3626 4 0.421808 19.4283 5.37487 
3226 4 2.67435 17.8465 10.1316 
3645 4 4.4885 14.0879 9.52616 
3675 4 5.01274 16.5361 10.3191 
3641 4 5.2036 16.8858 8.33434 
2832 4 2.45166 16.6285 7.0607 
3121 4 1.21049 16.3498 7.85989 
2882 4 0.17723 17.2259 9.41609 
3308 4 0.722449 15.3189 8.0089 
3716 4 2.79239 16.6085 5.96599 
2836 4 4.89763 18.8455 7.79166 
3619 4 4.25684 12.5264 11.7713 
3444 4 0.267894 14.7312 6.47805 
3219 4 5.6294 13.8275 4.81939 
3344 4 8.30141 17.9363 9.99869 
2841 4 6.86049 16.5152 9.18417 
3051 4 8.97262 17.6844 11.938 
3790 4 6.09711 12.3384 3.88524 
3768 4 8.70415 16.7502 6.65877 
3762 4 9.56467 17.5763 7.92446 
2935 4 6.83352 14.915 4.19248 
3128 4 8.59733 16.7157 9.7894 
3042 4 37.0664 17.2307 15.7897 
3499 4 10.8411 16.5235 9.54369 
3303 4 16.8508 17.5364 9.22226 
3333 4 12.7823 18.504 10.8767 
3066 4 12.167 16.233 4.23954 
3275 4 16.7522 14.073 6.92429 
3500 4 24.1967 19.528 19.6397 
3753 4 14.7237 14.1307 9.71438 
2997 4 13.8047 17.725 8.6692 
3221 4 15.0633 17.947 5.88459 
3009 4 20.6303 17.7286 7.503 
3067 4 21.996 17.61 6.42347 
3056 4 9.12714 19.9877 20.1478 
3475 4 19.4123 15.7778 8.49372 
3563 4 22.0974 16.0636 9.37083 
3155 4 22.7681 19.95 6.07794 
3370 4 24.438 7.67996 14.9498 
2912 4 28.9657 17.3827 10.0775 
3331 4 26.9686 14.0161 11.8584 
2818 4 26.4756 18.3695 11.5945 
3779 4 27.0631 18.1609 4.74486 
3410 4 29.1934 17.8772 8.09256 
3070 4 20.0251 18.2139 7.03579 
3764 4 32.6129 18.3308 9.92519 
3164 4 30.5622 16.9911 9.46566 
2807 4 29.6463 16.2189 7.03043 
3606 4 33.7625 14.7828 10.0725 
3224 4 34.6048 19.5635 6.93205 
3146 4 31.9369 17.5278 4.02998 
3677 4 31.2065 16.2517 10.6507 
3461 4 38.4218 13.927 7.86297 
3725 4 36.4247 19.4445 8.34165 
3302 4 39.9285 13.4587 5.88041 
3780 4 5.60108 17.0763 18.1101 
3648 4 39.7183 5.47934 11.2095 
3094 4 7.08753 5.30707 12.6824 
3414 4 8.48228 6.29443 14.3736 
3451 4 12.7746 0.734202 15.893 
2817 4 14.1194 7.07216 10.564 
3489 4 10.6239 2.81367 10.4729 
3743 4 12.2933 2.75323 15.3719 
3389 4 14.3203 3.86105 10.0444 
2933 4 6.39718 19.3406 1.88525 
3596 4 12.775 5.72102 13.3763 
3693 4 16.5474 5.42426 11.914 
2893 4 16.1397 2.61415 13.5793 
2978 4 20.0774 5.20818 15.6985 
3115 4 18.0686 1.75034 10.5477 
3792 4 20.8547 3.1955 16.6289 
3248 4 21.0723 6.51683 10.1661 
3599 4 21.1695 1.1146 11.2365 
3273 4 26.0349 3.08557 11.5825 
3227 4 29.6234 6.8878 15.5486 
3711 4 35.1495 0.673969 12.7824 
3199 4 34.4745 4.25909 14.7199 
3467 4 39.3954 3.04331 12.561 
3126 4 37.0797 5.70354 10.6999 
3205 4 36.1939 5.52206 16.5361 
3306 4 38.0567 3.34629 8.76391 
3578 4 3.85339 7.00893 13.4925 
3290 4 2.16837 7.82198 11.127 
2976 4 5.65679 9.15432 12.827 
3076 4 5.37685 10.8951 12.0091 
2986 4 4.48864 12.8528 9.95099 
3172 4 9.06105 7.09603 14.0414 
3639 4 6.54826 10.2791 11.3428 
3120 4 7.98272 10.3069 15.95 
3603 4 11.3254 12.1351 12.7917 
3712 4 10.3213 6.44641 13.0137 
2857 4 14.0277 9.20038 12.1417 
3096 4 11.3221 7.83194 13.7691 
3053 4 13.8685 6.88956 13.5674 
3758 4 18.7072 10.0053 14.5275 
3605 4 23.1705 10.3267 11.8443 
3062 4 21.6149 10.5627 10.8751 
2856 4 19.5037 12.1147 11.2658 
2874 4 19.9458 10.6309 15.4612 
3211 4 22.2933 7.22999 14.3519 
2905 4 21.3139 10.8937 13.8428 
3750 4 21.6939 10.01 12.0905 
3681 4 17.4849 8.10314 14.0248 
2991 4 29.0644 12.612 11.7868 
3239 4 25.3241 5.69718 13.8964 
3409 4 31.4179 7.64792 11.9933 
2945 4 27.7063 7.39776 12.4356 
3332 4 32.0392 12.4706 9.54149 
3406 4 30.4496 10.3399 13.7091 
2937 4 32.1083 7.64183 9.97797 
3714 4 1.36571 8.00925 13.148 
3387 4 37.8807 11.5056 12.1489 
2980 4 0.154614 10.0605 15.1098 
3497 4 36.9983 11.4903 14.729 
3713 4 1.93477 16.781 13.5252 
3458 4 4.8546 16.1112 14.9002 
3529 4 3.85697 16.4076 12.2486 
3592 4 21.0374 14.9879 16.3754 
3558 4 8.67594 16.9847 13.0859 
3080 4 9.62738 18.8569 12.9167 
3412 4 9.11011 11.5086 14.9931 
3166 4 15.631 17.9406 12.3456 
3719 4 17.8849 16.8186 9.84304 
3618 4 12.4724 15.0495 13.8875 
3402 4 23.4461 17.214 13.418 
3267 4 17.8401 17.0872 14.4989 
3031 4 22.6191 19.9452 14.3056 
3157 4 17.3357 15.3449 13.7082 
3397 4 15.5277 18.7297 13.1651 
3448 4 17.7897 15.8319 10.9317 
3480 4 22.8876 15.0576 10.3043 
3202 4 23.2899 15.0929 12.3566 
3662 4 25.0453 14.112 14.435 
3403 4 32.3364 16.6061 11.242 
3577 4 27.4543 17.493 12.7489 
3453 4 30.369 13.4389 13.7747 
3527 4 27.7882 17.8271 11.0986 
3637 4 39.3733 17.4 11.3674 
3258 4 37.7308 19.7033 12.9636 
3393 4 32.952 15.1916 13.0541 
3040 4 36.7843 15.4268 12.4482 
3074 4 0.912213 17.376 11.4351 
3733 4 4.24205 4.04056 17.1425 
3365 4 0.0231589 1.58347 16.0988 
2842 4 8.35577 14.5566 17.2283 
3057 4 7.86835 1.58103 16.7087 
3404 4 11.2034 4.78475 20.1922 
3005 4 6.74608 4.20695 20.0763 
3392 4 8.4411 15.8376 17.0298 
3313 4 26.4498 4.74818 18.8792 
3161 4 27.0277 3.89982 18.8236 
3380 4 34.1182 3.85185 18.5205 
2884 4 30.8275 2.12074 16.7094 
3694 4 0.812562 2.63275 19.4832 
3320 4 8.50537 11.1031 16.3207 
3557 4 11.0505 9.52775 16.9001 
3551 4 17.6301 7.71152 18.0814 
2822 4 18.916 9.20888 17.0004 
3650 4 12.6769 18.5869 20.9067 
2938 4 2.80682 3.64907 24.0546 
3038 4 4.58895 2.12261 22.7701 
3795 4 10.9358 15.6488 21.5683 
3415 4 6.30025 -0.0112157 24.2942 
2803 4 15.3289 4.26644 20.9915 
3595 4 15.861 2.09211 25.1638 
2901 4 21.7742 2.03944 22.1856 
3455 4 33.7544 3.61508 23.0995 
3247 4 3.63188 6.77953 21.9244 
3254 4 12.9133 10.8371 25.2043 
2944 4 21.3904 10.755 24.1095 
2946 4 18.1266 9.08013 23.3883 
2934 4 23.9386 11.9611 25.2288 
3520 4 25.1707 13.4075 21.0438 
3472 4 24.0803 9.52897 24.1283 
3092 4 25.813 9.17673 21.3609 
3791 4 33.9482 14.9687 22.6676 
2932 4 5.33382 19.1267 35.7484 
3011 4 2.87358 17.2069 22.968 
3755 4 3.91753 15.1665 26.9221 
2889 4 6.05105 16.8594 23.4792 
3751 4 14.9575 18.4042 23.3014 
2852 4 17.0507 14.6967 25.1609 
3316 4 32.2133 18.5084 21.7399 
3328 4 11.348 19.5409 33.4879 
3784 4 11.036 5.8332 24.4332 
2957 4 8.75479 1.78373 28.3285 
2887 4 10.5128 0.571449 30.3379 
3766 4 22.2653 1.98291 27.5787 
2813 4 29.908 4.39941 25.9912 
3018 4 31.0788 3.97622 25.3273 
3210 4 1.31154 3.33661 28.7396 
3017 4 39.1935 10.3682 30.0979 
3272 4 18.5981 9.1854 27.7343 
3020 4 32.1311 11.3408 28.9448 
3555 4 30.1081 7.57493 27.8147 
3688 4 32.548 12.0821 29.3303 
3631 4 34.5847 11.5729 28.1237 
3366 4 37.0454 9.85436 26.3253 
3655 4 0.0338475 8.2296 28.1777 
3720 4 6.81858 16.95 24.0368 
3702 4 5.20695 18.3144 31.1625 
3189 4 39.7997 19.6417 30.4046 
3644 4 7.58986 17.6188 26.566 
3454 4 15.5591 16.3679 28.3458 
3086 4 12.658 13.213 25.6452 
3054 4 24.9862 13.9077 28.6277 
2915 4 24.5574 15.0995 28.546 
3093 4 31.236 17.2634 32.0845 
2902 4 0.572533 2.07022 36.1843 
3309 4 1.48877 7.76018 37.7267 
3740 4 9.36904 3.74107 35.0332 
2883 4 16.0935 0.705086 35.6239 
2929 4 17.5928 5.23357 30.714 
3663 4 31.1844 1.64265 34.0709 
3729 4 37.0541 3.50345 31.9741 
2846 4 5.88457 11.9185 36.5397 
3535 4 4.73516 10.5852 36.4634 
3030 4 26.133 7.94597 35.9404 
3085 4 28.4406 14.2307 34.0538 
3771 4 5.64004 18.2654 32.5904 
3584 4 24.9977 19.4643 35.448 
3029 4 39.6975 13.505 32.1377 
3235 4 3.13601 3.31942 40.2546 
3440 4 0.599245 2.45891 37.962 
2833 4 1.83704 0.51038 40.5446 
3162 4 14.7009 4.3898 39.2352 
3658 4 19.5119 0.236373 35.8346 
3278 4 0.084078 4.10526 36.5373 
3325 4 8.33581 7.58862 38.4104 
3459 4 17.5079 8.9441 40.4116 
3411 4 16.9558 7.13101 37.1293 
2897 4 24.7267 10.9807 39.6029 
3545 4 32.1979 8.25339 37.762 
3673 4 35.3314 8.69347 37.2744 
3237 4 37.0017 10.2049 39.5248 
3073 4 36.8984 11.6906 39.8329 
2923 4 6.44736 19.121 39.7676 
2924 4 26.1186 14.3118 38.4633 
3083 4 23.2377 14.0697 36.1322 
3101 4 27.6717 16.233 39.0107 
2801 4 38.0381 16.0002 36.4663 
3660 4 36.469 15.8816 39.5561 
2851 4 7.7979 19.8488 23.9489 
3144 4 30.288 0.368658 21.0964 
3204 4 39.803 23.1224 4.93877 
3169 4 1.7704 25.3868 5.00554 
3509 4 5.4603 24.4267 2.90803 
3280 4 6.30118 23.0398 5.24846 
3130 4 7.66898 24.209 5.73284 
3416 4 29.8159 39.8566 8.43366 
3685 4 4.48036 21.1616 1.45619 
3530 4 8.09493 25.3154 3.00825 
3493 4 11.9283 25.9075 5.80191 
3646 4 6.71022 20.7549 2.06127 
3481 4 8.37172 25.4067 4.59365 
3041 4 9.02379 22.5742 2.79538 
2853 4 10.2752 21.022 4.47614 
3177 4 36.4152 24.0455 20.7856 
3285 4 12.0162 26.0256 1.21869 
3340 4 11.3582 21.3066 3.91162 
3232 4 27.2394 28.679 18.4429 
3318 4 12.5625 21.628 4.44062 
3212 4 13.5693 21.0588 5.80879 
3552 4 11.7443 22.0024 2.18253 
3544 4 12.7219 22.9393 2.67049 
3027 4 19.0329 21.8061 0.993415 
3728 4 16.133 26.9429 1.04428 
3139 4 18.888 22.4569 5.11646 
3353 4 20.3511 24.8796 3.67434 
3474 4 21.0248 25.6003 2.69308 
3206 4 17.9074 20.594 1.39783 
3652 4 26.4137 23.3967 2.90639 
2880 4 23.3167 21.9031 1.35539 
3433 4 26.8451 22.9377 1.23065 
3396 4 20.7067 22.1837 2.16293 
2971 4 23.6425 25.499 1.21805 
3277 4 23.0283 23.2798 5.99912 
2931 4 27.9186 24.6617 4.30222 
3616 4 24.4665 22.2018 1.36896 
3709 4 33.0215 25.4577 4.13923 
3400 4 32.3617 26.1126 3.89574 
2809 4 32.4495 22.8196 7.48395 
3624 4 28.8968 24.5037 1.04539 
2955 4 33.7578 23.4865 2.8792 
3060 4 30.1619 24.435 1.36865 
2866 4 28.0618 20.842 3.05154 
3055 4 31.1705 25.9757 3.06578 
3420 4 36.3019 21.4009 4.88693 
3129 4 0.182485 21.8965 1.31617 
3378 4 35.6762 24.9955 4.92848 
3078 4 34.6146 25.6264 4.0332 
3348 4 34.41 25.2532 1.16391 
2829 4 37.5142 26.3927 2.14081 
3697 4 33.9835 21.845 1.0121 
3759 4 2.8934 27.52 3.00381 
3438 4 0.551826 30.4912 5.52729 
2812 4 3.77917 29.2077 3.89502 
3550 4 4.2713 26.9357 3.72542 
3731 4 3.13252 25.5303 1.94891 
3519 4 3.50757 33.5943 2.50718 
3634 4 7.29474 31.3974 2.74895 
3044 4 7.55557 28.1906 3.69863 
3525 4 15.3722 32.3734 5.12215 
2951 4 16.0911 33.2469 7.20358 
3122 4 14.2548 33.0318 2.14327 
3383 4 10.9646 29.6923 3.23043 
3381 4 14.5937 26.6987 4.34821 
3100 4 18.5606 30.5278 1.88453 
2903 4 20.3045 28.1482 3.45721 
3580 4 22.3894 30.9016 3.75947 
3767 4 19.2899 33.0057 5.11672 
3301 4 19.8157 29.6828 1.21716 
3112 4 17.8405 27.074 0.997876 
2940 4 17.1218 32.4859 1.07329 
3071 4 22.553 33.5331 2.28129 
3047 4 22.5723 28.8764 1.12628 
3610 4 25.9299 27.3077 2.43105 
3167 4 27.0766 32.4478 1.92195 
3350 4 26.7114 26.8257 3.46634 
2952 4 30.3144 29.3881 2.72068 
3307 4 35.6393 29.8386 1.98562 
3654 4 31.592 25.4468 6.38102 
3643 4 31.4477 30.9466 2.99254 
3793 4 34.427 27.8086 3.10387 
3183 4 31.566 27.3015 3.64672 
3109 4 34.9697 30.9786 3.75876 
3305 4 32.6169 32.7776 1.31021 
3417 4 37.3675 29.5385 2.8308 
2837 4 34.8597 31.1126 4.96495 
3352 4 37.5965 27.5312 1.07691 
3541 4 36.7112 34.1701 1.21415 
3314 4 5.45243 37.5032 2.54696 
3372 4 2.78953 36.8041 2.6341 
3570 4 4.0164 36.6614 4.64338 
3760 4 2.03619 34.2494 2.66886 
3604 4 5.96645 32.6155 3.70334 
3776 4 3.77746 38.8392 5.35144 
3542 4 3.41021 34.3942 1.53324 
3401 4 2.59579 35.6536 2.68981 
3326 4 8.81288 36.1618 4.71357 
3518 4 11.8456 37.5014 2.25876 
2989 4 6.64714 35.4581 1.40729 
3586 4 7.60101 35.1764 3.90302 
3376 4 7.09954 38.7683 2.43981 
3470 4 35.1473 39.4748 15.69 
3037 4 12.1279 38.4208 4.18941 
3752 4 12.3912 38.4174 2.74042 
3706 4 14.8069 34.5538 3.19903 
2869 4 16.46 37.9175 2.05702 
3721 4 11.5312 36.707 5.03633 
3799 4 15.7778 39.8837 3.52284 
3310 4 14.5641 37.9453 4.85428 
3339 4 38.1419 20.8593 5.56773 
3699 4 11.4461 38.0102 1.16922 
2925 4 16.4141 36.7672 2.73707 
3135 4 19.1318 35.0979 1.44035 
3656 4 17.5354 38.4235 1.48599 
3375 4 18.3472 33.3544 1.15572 
2895 4 22.1798 39.7969 4.86235 
3717 4 21.4371 35.5932 1.25188 
2840 4 18.4961 33.4521 4.30597 
3035 4 21.944 37.869 5.52834 
3628 4 28.8259 37.1688 1.38367 
3609 4 28.4273 37.6466 2.28874 
2921 4 31.9966 39.9464 12.619 
3591 4 27.5828 39.5522 5.65568 
3293 4 28.276 34.6904 4.49277 
2982 4 23.0399 21.0034 8.47832 
3197 4 33.2378 36.089 3.49249 
3627 4 30.7567 35.0195 4.37506 
3744 4 32.6419 38.5945 2.55076 
3334 4 32.1615 34.9104 4.19421 
3430 4 31.5248 33.6202 3.11051 
2961 4 24.1483 38.37 8.78317 
2974 4 35.204 21.5959 4.34861 
3739 4 32.842 37.3819 4.53602 
3263 4 39.5478 31.8952 2.54437 
3021 4 36.1186 38.9305 3.38235 
3613 4 34.7123 33.5027 2.41072 
3594 4 38.2862 33.5694 3.51628 
3250 4 36.5053 37.9573 3.67933 
3198 4 0.905562 23.2977 8.06794 
2823 4 4.80516 21.6671 10.246 
3360 4 39.9495 25.2427 6.34079 
3742 4 5.91432 23.4378 6.9769 
3508 4 1.71141 22.888 9.36489 
3538 4 0.29359 21.0385 7.87953 
3635 4 4.38225 24.9937 9.47036 
2886 4 5.47667 20.012 9.22247 
3036 4 7.39632 26.0239 5.60421 
3384 4 3.55793 21.7978 8.8826 
3271 4 5.65262 25.4756 8.23235 
3315 4 16.1915 20.3961 2.12124 
3234 4 8.63855 20.5834 7.74176 
3213 4 11.2216 25.2043 8.12759 
3682 4 8.81072 23.2709 5.64702 
3190 4 8.91106 21.8331 5.18747 
3343 4 10.2232 23.184 9.28631 
3781 4 12.9268 24.6561 6.32601 
3783 4 15.3397 20.1184 16.9372 
3138 4 16.1392 22.1006 4.54081 
3745 4 9.09298 24.6035 7.47084 
3642 4 16.5481 39.4604 2.95071 
3143 4 9.89749 21.613 5.39516 
2910 4 17.3741 26.298 5.06041 
2979 4 20.7458 22.2179 11.3468 
2927 4 17.2605 22.5174 7.33362 
3104 4 19.2567 20.6868 3.86839 
3377 4 27.6881 20.1072 2.46486 
3179 4 27.7423 26.3657 8.05042 
3195 4 27.7962 24.4871 10.1348 
3722 4 25.7723 24.1205 5.38837 
2958 4 25.2536 25.6702 11.2774 
3140 4 28.6127 21.0073 5.84463 
2999 4 28.4349 21.5969 5.06885 
3501 4 35.9494 21.0261 9.00459 
3478 4 33.2734 20.9815 6.58635 
3763 4 35.2869 22.2862 7.7135 
3632 4 37.9349 23.4616 8.22999 
3077 4 36.1094 25.5152 10.0417 
2964 4 34.9971 20.7762 5.89953 
3598 4 19.1667 39.5129 6.79135 
3730 4 2.8915 30.8956 9.44436 
3364 4 2.25944 29.9797 5.83623 
3523 4 3.70468 33.637 9.65552 
2956 4 2.9302 28.967 7.83051 
3683 4 2.2954 29.3329 9.15658 
3710 4 1.55447 28.3196 4.23932 
3394 4 1.33809 28.9403 6.11649 
3068 4 2.0244 27.2207 4.92389 
3439 4 2.20401 26.618 8.03595 
3543 4 3.97882 32.5391 6.03202 
3098 4 8.72261 29.6756 6.18976 
3785 4 8.48224 33.4753 11.0274 
3593 4 7.45071 32.4821 9.3628 
3048 4 5.37478 26.2823 9.20014 
3786 4 11.9052 31.4569 7.76108 
3312 4 17.0292 26.3922 7.84614 
2850 4 14.5927 32.5382 6.21966 
2967 4 12.7408 29.1568 11.4445 
3620 4 15.6561 30.7774 6.44158 
3013 4 13.6876 25.6792 6.6372 
2919 4 12.6665 30.5704 8.11398 
2911 4 15.9161 33.9333 8.02516 
3485 4 15.2228 31.3822 8.90321 
3636 4 20.8297 29.146 9.69699 
2977 4 18.7057 27.2007 7.7834 
3209 4 20.5258 30.0981 11.8031 
3749 4 18.1003 25.6683 7.54286 
2996 4 19.5667 25.3915 4.25921 
2907 4 20.7392 30.2836 5.28288 
3001 4 21.8784 30.275 7.77694 
2876 4 21.731 29.7288 5.27156 
3724 4 22.8486 28.517 7.7622 
3253 4 28.2551 28.1238 10.2617 
3769 4 25.7801 31.4358 6.72917 
2858 4 29.0111 31.6247 9.45106 
3252 4 27.3469 30.7515 9.80945 
3428 4 29.821 31.372 8.45374 
3000 4 25.7994 26.5719 8.38325 
3666 4 27.2424 30.0688 6.16359 
3192 4 33.1819 31.5607 5.98105 
3382 4 27.2758 28.0825 6.44971 
3571 4 33.3947 33.942 11.3333 
3329 4 29.3355 27.6723 7.49828 
3774 4 26.8221 26.8954 5.00602 
2885 4 30.3194 32.1531 6.5751 
3385 4 31.6021 32.798 8.79345 
2983 4 31.8666 28.6962 9.1235 
3601 4 30.171 29.8538 5.7007 
3537 4 31.8355 32.5482 6.32822 
3002 4 39.9754 27.6148 7.38216 
3255 4 35.2711 31.5087 9.74698 
2966 4 37.1887 29.057 9.06659 
3737 4 0.625724 29.286 3.71687 
3270 4 36.9771 31.5504 10.278 
2855 4 37.2161 32.2766 4.86335 
2896 4 36.2352 26.9613 7.23325 
3358 4 6.60039 38.6613 6.11524 
3789 4 1.88577 37.9508 6.90985 
3282 4 3.52214 38.6496 7.45546 
3243 4 4.06171 36.9411 7.26908 
3579 4 10.2618 37.6681 7.7126 
3187 4 10.978 37.7224 5.96407 
3345 4 6.41609 38.3291 7.7379 
3421 4 5.83304 37.1703 4.49652 
3026 4 11.2648 38.3084 9.30098 
2949 4 8.71759 34.7238 10.7502 
3362 4 36.0619 39.3317 6.98737 
3323 4 16.3767 33.5406 11.6533 
2898 4 14.7893 35.1822 6.08065 
3108 4 13.0943 37.5545 8.51448 
2985 4 13.6738 35.2022 5.143 
3667 4 14.4982 38.0695 6.10592 
3700 4 12.049 36.1063 5.85205 
3281 4 12.6877 36.958 6.90663 
3159 4 21.2022 34.2017 8.17049 
2959 4 20.9119 35.1822 7.91323 
2943 4 18.764 39.1493 9.31803 
3432 4 18.2747 33.4691 6.26917 
2970 4 21.1001 35.8803 6.17752 
2914 4 29.7909 39.7633 9.49752 
3004 4 30.2734 34.0348 7.25707 
3443 4 26.9278 36.097 6.64775 
3647 4 21.905 36.2177 12.4108 
3623 4 35.0543 33.7735 4.06076 
3207 4 34.2821 35.5909 10.9215 
3217 4 32.4683 37.2642 7.63625 
2939 4 33.162 33.135 6.26872 
3069 4 11.1603 20.4677 5.76147 
3522 4 31.5269 36.0613 7.2842 
3259 4 32.4914 38.2578 9.70553 
3665 4 32.6362 37.1294 8.96451 
3059 4 28.6208 36.1209 5.35249 
3576 4 29.9435 34.4661 6.12137 
3778 4 38.5353 32.2265 15.3341 
3337 4 36.9145 34.1355 8.85923 
3244 4 39.6318 39.9557 7.76164 
3335 4 36.9446 36.5907 8.51559 
3437 4 36.8138 33.2064 6.55802 
2830 4 38.7175 34.964 11.0898 
3528 4 35.6381 36.6661 10.0925 
2844 4 35.4822 38.517 10.1888 
3113 4 34.7391 36.6389 5.05325 
2854 4 38.7902 20.9493 11.3108 
3483 4 1.86688 25.9295 11.5807 
3435 4 5.85219 22.1787 15.0965 
2960 4 3.74419 23.4048 11.0722 
3349 4 -0.0535774 27.9317 12.8022 
3025 4 2.08494 23.4651 13.3669 
3223 4 9.11971 23.4258 16.7252 
3355 4 8.35699 20.6849 9.69569 
3477 4 8.52299 23.5663 12.939 
2984 4 12.3707 21.2329 10.6759 
3690 4 17.3089 23.2166 10.8449 
3622 4 17.1259 24.2222 13.1559 
3495 4 16.2013 27.4384 13.7867 
3562 4 21.839 24.2871 12.1194 
3023 4 18.7689 22.9307 12.6409 
3582 4 20.2824 22.5156 14.07 
2864 4 23.6756 22.6032 11.44 
2811 4 23.2193 25.7604 11.6744 
2965 4 26.8001 24.3201 10.3074 
3732 4 24.3216 22.1584 10.6598 
2870 4 29.7236 23.2368 15.3392 
3691 4 29.9049 21.2085 14.6578 
3423 4 33.8644 23.0682 9.87646 
3298 4 33.6247 21.737 13.8508 
3133 4 37.5845 21.3303 11.1963 
3171 4 35.0175 21.5464 11.2152 
3297 4 37.2707 23.228 11.5709 
3425 4 33.0839 27.2417 10.9702 
3507 4 34.8809 22.0742 12.9993 
3064 4 37.8616 21.0465 13.1679 
3131 4 36.4311 26.3584 13.5067 
2805 4 34.7485 24.1222 13.7377 
3515 4 4.82828 25.3775 10.9528 
3145 4 5.09742 31.0132 12.2368 
3796 4 1.39292 30.8826 9.74365 
3137 4 2.21886 25.349 13.8376 
3357 4 3.6001 30.4951 10.3743 
3418 4 5.0887 31.3926 8.29234 
3600 4 11.1125 30.4423 12.4045 
3373 4 11.9728 32.6532 11.0788 
3405 4 5.86522 28.8825 13.2312 
3549 4 9.52902 29.3999 13.5902 
3590 4 7.14785 30.3674 12.9077 
2891 4 8.41844 28.0422 14.2556 
2995 4 9.195 31.3511 11.8458 
3657 4 11.8761 28.1913 14.1285 
2819 4 12.0735 31.5166 9.91942 
2810 4 15.7173 31.293 13.4241 
2820 4 18.9911 32.5493 10.8874 
3111 4 17.2136 30.1508 13.29 
3640 4 24.5821 27.2627 14.4788 
3587 4 28.05 29.6466 11.2509 
3034 4 24.6337 30.9353 10.5347 
2994 4 22.9414 30.619 12.8475 
2962 4 26.7744 30.5357 11.1774 
3132 4 32.5324 32.8166 9.9696 
3797 4 34.2181 28.784 14.7259 
3391 4 32.1016 27.4117 11.6697 
3193 4 30.7512 33.1004 14.8169 
2963 4 30.1259 31.5257 13.2993 
3322 4 37.6828 26.2976 11.972 
2865 4 38.0555 30.6534 14.6719 
3181 4 39.0613 32.5042 13.9941 
2920 4 38.9899 32.3139 11.482 
2998 4 33.9248 27.0462 9.37796 
3564 4 39.6293 26.393 16.2612 
2835 4 38.3962 28.4861 10.4235 
3283 4 37.5916 28.6109 16.1256 
3630 4 4.59124 39.7524 13.3647 
2849 4 6.81496 38.2445 13.5159 
3245 4 2.52212 34.282 11.1521 
3260 4 2.43097 35.3359 12.982 
3659 4 7.18419 37.0838 14.8402 
3238 4 9.43606 34.6045 11.5467 
3107 4 11.5715 36.1655 13.5523 
3794 4 13.8155 36.5234 10.7209 
3296 4 8.79547 35.9498 13.0299 
3689 4 15.7664 34.8932 11.294 
3424 4 15.2178 36.361 12.4185 
3583 4 21.2086 38.4862 10.6397 
3684 4 19.1507 38.4299 9.95848 
3390 4 21.2871 34.0188 13.4264 
2814 4 21.2979 37.6654 10.1673 
3105 4 17.3504 36.4297 11.5907 
3388 4 19.0933 33.1343 13.0371 
3347 4 27.3576 32.9274 10.5125 
3165 4 26.3479 35.1389 13.4108 
2968 4 24.2711 39.0664 12.5999 
3484 4 27.5057 38.4721 13.2721 
2988 4 24.8471 38.6405 10.4069 
3671 4 29.4531 34.3566 12.6799 
3746 4 31.3826 36.2548 14.4106 
3775 4 34.3771 35.6246 15.7485 
3180 4 33.6493 39.5694 12.6868 
3256 4 32.6117 37.245 14.5264 
3419 4 32.6856 36.2445 10.8977 
3568 4 27.9442 38.324 1.81925 
2868 4 35.9811 37.8977 13.2476 
3110 4 34.5353 39.0171 10.3527 
2972 4 38.7391 38.5627 7.94449 
3201 4 17.6818 21.0895 16.1611 
3288 4 2.13346 25.0565 16.7719 
3506 4 4.98561 22.1825 19.4952 
3723 4 11.5881 39.2744 12.5731 
3279 4 18.6038 26.3281 16.7672 
3173 4 20.0657 25.6968 14.8941 
3136 4 28.3468 26.0942 15.0215 
3264 4 30.1763 23.2603 17.2467 
3186 4 21.8518 39.7906 13.2849 
2888 4 2.01342 28.0676 15.7177 
3426 4 4.05351 29.4197 16.1329 
3039 4 10.2783 27.108 17.1306 
3686 4 11.0815 34.4653 14.6142 
3490 4 13.423 30.5372 17.8899 
3496 4 14.3756 33.0178 20.4083 
3208 4 18.7475 27.7431 20.736 
2930 4 17.5154 28.1575 19.038 
2881 4 37.2623 26.7388 17.8345 
3099 4 1.21507 38.1083 17.7487 
2942 4 10.9313 33.1519 16.209 
3058 4 9.47602 37.6019 18.7272 
3014 4 7.63645 31.7227 19.3912 
3533 4 15.3364 34.5744 18.193 
3462 4 19.9649 32.5244 19.3863 
3413 4 20.3597 32.1649 17.5224 
2926 4 17.8716 36.9959 16.943 
3050 4 25.6875 38.6868 17.6713 
3479 4 23.8566 35.7813 20.054 
3449 4 32.755 38.3896 19.4381 
2992 4 28.1668 33.9815 19.0981 
3295 4 1.32165 21.6252 3.87634 
3674 4 9.80097 39.4934 6.12756 
2808 4 0.111236 39.4074 2.46228 
2861 4 31.8733 39.8678 6.21755 
3473 4 30.6972 20.7742 5.45164 
3569 4 27.1548 20.6472 9.3255 
2847 4 35.8709 20.1926 14.1244 
3317 4 4.65758 39.6103 7.89101 
3738 4 11.2331 20.9531 1.47741 
3517 4 15.0563 20.793 2.71213 
3450 4 8.28039 39.9077 9.94569 
3532 4 13.1163 20.1234 4.44651 
3203 4 10.2548 39.6818 1.10811 
3045 4 25.6244 39.8847 2.67049 
3336 4 4.46261 39.853 4.3923 
3512 4 4.1265 39.9582 11.0478 
3452 4 2.05534 22.2776 24.947 
3007 4 2.70516 29.7276 21.2256 
3491 4 16.6698 21.4097 23.1743 
2928 4 33.8355 20.903 26.0873 
3102 4 2.41911 27.619 24.2761 
2824 4 13.8582 29.3503 22.082 
3158 4 16.7633 34.5223 22.1928 
2821 4 19.7904 28.2702 24.9369 
3482 4 18.0732 26.221 22.4753 
3276 4 39.3791 27.3045 21.3963 
2936 4 24.0944 27.8864 24.3314 
3548 4 17.1416 35.9807 23.1911 
3422 4 22.533 37.3668 22.163 
2899 4 27.749 38.0176 24.1598 
3680 4 26.1941 37.6078 24.7504 