ITEM: TIMESTEP
6000
ITEM: NUMBER OF ATOMS
1000
ITEM: BOX BOUNDS pp pp ff
0 40
0 40
0 42
ITEM: ATOMS id type q x y z 
2849 4 1 6.63337 4.58815 1.09391 
3792 4 1 7.0185 18.4885 11.0778 
3031 4 1 39.4061 18.2731 8.66492 
3036 4 1 1.44423 7.60616 16.0331 
2927 4 1 5.36117 0.520282 4.03903 
2881 4 1 22.6124 18.0291 9.71261 
3027 4 1 0.469192 5.30872 11.7592 
3176 4 1 39.1579 13.1327 6.88277 
3074 4 1 31.8221 8.76807 6.53165 
3016 4 1 17.5172 7.16772 7.25326 
3165 4 1 5.23228 8.00894 3.62504 
3492 4 1 9.94564 1.1813 14.6716 
3195 4 1 17.9467 10.2416 9.12969 
3645 4 1 5.62419 15.0831 20.7421 
3323 4 1 2.10356 2.41656 7.13667 
3192 4 1 26.6491 13.6619 1.03121 
3475 4 1 10.7753 3.02563 11.5509 
3753 4 1 15.7241 16.651 7.20289 
3259 4 1 24.5532 14.0889 11.3216 
3046 4 1 9.25379 3.45956 1.13143 
3759 4 1 14.4195 13.547 3.49723 
3355 4 1 13.8428 11.6635 3.14065 
3590 4 1 28.8823 16.1754 20.3316 
3431 4 1 12.7487 2.94104 7.99611 
3733 4 1 1.33766 4.2634 6.01188 
3306 4 1 8.37913 11.5615 9.63443 
3596 4 1 38.2071 19.9065 19.673 
3050 4 1 11.9247 14.2731 7.30695 
3536 4 1 15.0714 10.3343 12.0917 
2877 4 1 14.3739 4.30785 10.8384 
3262 4 1 17.5626 14.9538 2.77122 
3070 4 1 18.0443 16.441 2.72514 
3493 4 1 22.6155 9.81868 8.85339 
3616 4 1 38.1012 11.0152 8.85723 
3669 4 1 37.2485 16.5806 18.4527 
2946 4 1 30.5299 14.1256 9.51742 
3695 4 1 4.70793 0.424722 19.6372 
3130 4 1 6.82304 7.09056 10.306 
3321 4 1 0.56047 10.0278 3.88492 
2939 4 1 13.9717 19.764 18.9846 
3286 4 1 30.2029 13.5988 2.46764 
3559 4 1 18.5043 6.49822 4.99613 
3470 4 1 3.42419 6.24252 3.45479 
3569 4 1 22.2405 4.04568 10.69 
3646 4 1 30.7619 8.80656 5.99331 
3453 4 1 1.52082 10.0603 9.78876 
3477 4 1 28.0824 8.97349 16.339 
3191 4 1 24.4134 5.93011 4.20043 
3434 4 1 6.69421 0.995691 16.6976 
3586 4 1 1.17149 5.85684 9.46299 
2935 4 1 23.5271 14.8232 19.5478 
2975 4 1 16.5509 18.1393 11.3336 
3787 4 1 26.8332 18.4797 5.96262 
2916 4 1 3.17111 4.72808 4.80962 
3496 4 1 28.6726 16.8487 2.40425 
3300 4 1 36.6471 8.29625 3.14768 
3152 4 1 30.0814 3.78399 2.71996 
3240 4 1 14.723 1.65907 14.4578 
3666 4 1 32.5182 8.87751 8.07841 
2963 4 1 34.8379 4.89975 6.05512 
3502 4 1 31.9806 1.79982 3.89052 
3204 4 1 0.129622 11.3321 1.4092 
3684 4 1 2.02951 4.94078 1.86168 
2944 4 1 8.17379 2.09318 2.91325 
2982 4 1 31.4713 17.0482 9.93611 
2915 4 1 5.10065 10.8161 1.47112 
3073 4 1 37.6046 11.7897 3.67406 
3124 4 1 14.6861 13.2282 11.5994 
3223 4 1 38.5823 10.2537 4.49124 
3682 4 1 15.6134 6.63561 8.3487 
3062 4 1 10.6782 18.1266 1.44838 
3086 4 1 5.1983 16.1537 1.3335 
3773 4 1 9.63102 13.0344 10.6766 
3765 4 1 8.59382 18.1938 1.18405 
3620 4 1 8.86831 12.5902 5.42566 
3794 4 1 4.08866 10.1501 3.44308 
3185 4 1 7.47149 2.12644 5.72643 
3483 4 1 12.6215 5.92532 1.60022 
3472 4 1 7.7439 8.56641 3.05093 
3275 4 1 16.1585 13.3187 7.59268 
3418 4 1 15.8982 7.61157 2.84724 
3040 4 1 15.6261 14.1191 2.38176 
3461 4 1 20.1714 8.56977 2.68483 
3406 4 1 22.9146 19.0661 1.14627 
3488 4 1 21.7675 3.89934 3.77735 
3658 4 1 18.9412 10.619 2.23476 
3344 4 1 21.0193 17.6433 2.13307 
3449 4 1 30.1788 17.0315 2.82629 
3104 4 1 16.7674 0.616814 1.65538 
3639 4 1 20.8824 16.2549 4.85802 
3090 4 1 24.6732 8.22459 5.46419 
2953 4 1 34.2762 9.84661 1.39155 
3656 4 1 25.1875 14.4973 9.78675 
2913 4 1 25.8551 13.866 1.876 
2918 4 1 20.756 11.9761 6.98843 
2907 4 1 35.0902 6.64177 1.78643 
3126 4 1 27.1577 11.2887 3.88569 
2932 4 1 33.2969 3.7927 1.78355 
2923 4 1 28.3749 12.5965 1.91797 
3486 4 1 38.7836 7.61734 7.25428 
3649 4 1 33.7701 19.6815 6.19939 
2805 4 1 37.5295 19.3633 14.3654 
3632 4 1 7.82092 16.7267 9.67395 
3494 4 1 4.3462 7.29469 9.02342 
2809 4 1 39.3262 17.6506 3.39035 
2824 4 1 30.4129 15.5498 9.4558 
2854 4 1 37.0544 18.5899 1.57632 
3006 4 1 2.06896 14.0001 5.98832 
3167 4 1 13.9459 15.1863 13.16 
3171 4 1 37.2306 5.93405 6.59955 
2925 4 1 35.7785 10.3048 16.1818 
3716 4 1 17.6614 18.4047 11.8364 
3023 4 1 10.781 6.28534 9.14449 
3631 4 1 4.3838 18.3204 17.1928 
3274 4 1 9.65534 11.1045 2.07385 
2934 4 1 12.3773 12.254 9.20277 
3272 4 1 18.759 6.96557 2.81414 
3348 4 1 10.0614 7.92642 6.70308 
3796 4 1 15.8407 6.23895 10.6794 
3228 4 1 13.1381 13.9328 4.39362 
3282 4 1 8.61954 12.6295 4.01822 
3003 4 1 9.64991 13.4011 2.70912 
3428 4 1 21.3152 1.42779 9.23703 
3721 4 1 2.68128 1.44073 4.22658 
3087 4 1 18.6394 19.9364 5.93678 
2844 4 1 21.2214 16.1059 1.30831 
3168 4 1 14.1693 17.0793 6.91192 
3440 4 1 10.0204 12.0529 11.0239 
3775 4 1 5.25473 7.00734 3.78237 
3155 4 1 6.25011 12.6612 4.69009 
3257 4 1 21.1103 6.10256 6.77619 
3313 4 1 22.4003 17.3723 7.34375 
3579 4 1 17.9539 19.8677 7.54028 
2984 4 1 23.1805 13.0617 2.02402 
3153 4 1 19.9446 14.0078 11.3232 
3642 4 1 23.702 15.6462 5.26786 
3543 4 1 16.9402 11.3507 5.17799 
3011 4 1 19.7903 17.4118 7.79992 
3089 4 1 19.9176 1.41264 8.1711 
3635 4 1 29.584 5.90088 3.66844 
3741 4 1 25.3206 19.8156 1.94233 
3648 4 1 38.9665 17.6926 5.93117 
3539 4 1 22.2705 16.1165 3.97828 
3450 4 1 38.7841 1.66158 13.6105 
3297 4 1 3.52689 5.30158 9.92694 
3679 4 1 19.4397 2.56313 5.89407 
3585 4 1 9.71843 11.635 6.21736 
3285 4 1 10.123 15.8608 8.20104 
3010 4 1 33.3027 4.09106 5.82509 
3377 4 1 1.98673 8.21629 11.7268 
3233 4 1 2.17192 5.48312 7.97945 
3526 4 1 36.2887 16.5014 6.63149 
3020 4 1 19.8501 3.66705 14.2924 
3251 4 1 31.4304 8.64234 20.2678 
3500 4 1 35.7803 2.6957 20.3041 
3618 4 1 12.4053 9.60528 3.59306 
2837 4 1 22.345 8.81605 6.46819 
2838 4 1 38.3495 12.4701 8.78067 
3052 4 1 8.13258 6.76499 16.2231 
3481 4 1 33.3839 14.5444 1.02015 
3711 4 1 30.1822 13.6283 12.7052 
3435 4 1 31.1864 17.2744 0.97929 
2833 4 1 33.2515 5.3895 14.4653 
3438 4 1 35.9485 14.8979 8.11102 
3108 4 1 16.9334 5.09994 4.39576 
3094 4 1 3.50986 4.80326 2.16702 
3187 4 1 38.2959 18.5755 12.8801 
2828 4 1 9.65873 0.198575 13.7141 
3137 4 1 34.3629 6.19989 4.50575 
3604 4 1 32.7017 0.900127 14.3336 
2835 4 1 13.458 7.76236 12.6916 
3347 4 1 15.9928 0.238197 9.11343 
3163 4 1 13.0541 4.6838 8.47232 
3028 4 1 11.2073 1.85416 5.51877 
3456 4 1 31.8467 19.0014 4.27475 
3358 4 1 24.0122 13.2229 10.9028 
3091 4 1 5.47374 9.89653 13.5892 
3226 4 1 18.3784 11.5345 1.54794 
3410 4 1 19.4366 9.21046 3.49851 
3746 4 1 19.1563 3.42037 12.7634 
3783 4 1 14.3016 19.871 4.12016 
3220 4 1 19.4515 3.62767 8.92068 
3686 4 1 9.72246 9.0156 6.47235 
3426 4 1 26.942 3.66916 11.5087 
3511 4 1 38.8596 13.0015 1.89086 
2931 4 1 35.1416 1.22028 5.06301 
3414 4 1 3.58743 5.74619 18.727 
3512 4 1 25.436 3.63373 4.31552 
2922 4 1 35.9595 17.6177 5.18346 
3208 4 1 21.1008 6.48825 7.87657 
3677 4 1 21.403 15.3458 6.94121 
3785 4 1 30.3362 4.0645 6.17042 
3133 4 1 33.1831 1.63523 9.11145 
3769 4 1 8.36992 15.7844 11.2852 
3479 4 1 8.77546 2.33406 6.34033 
3718 4 1 30.5199 0.349755 5.18173 
3480 4 1 4.82087 9.00744 12.4277 
3455 4 1 0.758048 1.52247 7.51763 
3755 4 1 2.21521 11.9486 14.879 
2972 4 1 36.1971 8.065 2.14296 
2890 4 1 22.9229 3.70139 7.94261 
3560 4 1 10.1503 7.31157 17.0277 
3565 4 1 31.3602 2.07231 11.2707 
3519 4 1 30.6311 0.168764 8.07147 
3778 4 1 19.4517 11.3606 3.34545 
3157 4 1 7.64577 5.21641 7.61024 
3724 4 1 35.7877 16.9142 10.8469 
3041 4 1 7.24671 12.2342 2.51758 
3154 4 1 12.9957 4.76444 9.52341 
2807 4 1 35.5895 10.8089 2.69289 
3713 4 1 14.0278 6.51395 7.76228 
3276 4 1 6.22669 17.1882 12.182 
3129 4 1 4.97037 12.4687 1.43521 
2840 4 1 13.337 0.66104 5.15621 
3623 4 1 37.2863 7.49825 7.12977 
3408 4 1 14.122 5.09853 1.15387 
3161 4 1 22.7086 4.69409 9.50609 
3136 4 1 3.16168 17.8768 9.59175 
2842 4 1 39.3092 0.242704 7.76744 
3388 4 1 12.8421 19.7768 20.9735 
3103 4 1 8.56087 7.64071 7.85293 
2898 4 1 21.2562 2.57013 4.70422 
3166 4 1 16.5603 6.48573 7.2692 
3005 4 1 26.0514 15.6981 11.9949 
3538 4 1 26.8095 13.4762 7.68272 
2834 4 1 32.541 16.615 3.21842 
3599 4 1 25.695 3.78699 9.21073 
2810 4 1 31.8379 11.9035 6.34416 
2804 4 1 20.9593 11.2384 8.24402 
3266 4 1 16.0802 8.74301 6.28667 
2887 4 1 11.1577 0.225173 12.8024 
3105 4 1 30.618 15.9144 5.23337 
3460 4 1 32.5947 6.17942 17.5525 
2911 4 1 34.2363 7.23877 11.8802 
3207 4 1 22.2042 7.90736 9.27164 
3680 4 1 29.8299 15.812 7.09806 
3798 4 1 33.8841 6.03641 15.1301 
2968 4 1 35.1501 16.2059 9.83126 
3164 4 1 0.209201 13.927 0.891032 
3177 4 1 31.5144 15.9041 8.05872 
3528 4 1 26.9952 12.3808 1.24287 
3000 4 1 27.2469 10.1915 3.7163 
3681 4 1 31.0358 5.47839 15.7 
3581 4 1 32.8871 10.4701 11.2636 
3403 4 1 4.26022 9.20626 15.3998 
3532 4 1 9.85647 15.1731 4.3381 
3789 4 1 32.8476 6.48874 1.42102 
3653 4 1 33.1837 19.1913 4.06775 
3432 4 1 32.7214 0.884204 2.20652 
3199 4 1 37.6358 2.53914 11.1187 
3051 4 1 32.171 4.72431 2.74975 
3730 4 1 26.1217 16.2686 9.96649 
3030 4 1 4.75976 2.4963 5.09453 
3609 4 1 33.4278 0.361908 3.67587 
3269 4 1 37.2973 11.0909 1.902 
2914 4 1 5.62248 7.98822 10.5271 
3467 4 1 1.30179 9.92724 4.65056 
3364 4 1 7.86848 19.7387 3.44544 
3241 4 1 14.3528 15.3174 19.7232 
3338 4 1 8.82454 12.2439 2.43242 
3034 4 1 16.8004 1.83323 9.70588 
3774 4 1 4.21479 4.60315 4.21715 
3038 4 1 34.9135 10.664 12.9697 
3772 4 1 12.0635 15.1814 7.77511 
3791 4 1 9.40683 18.8291 3.99786 
3248 4 1 14.0725 10.961 4.71203 
3558 4 1 11.6962 18.8756 1.88012 
2956 4 1 38.3754 17.1385 6.78627 
3225 4 1 25.0581 5.69211 10.7051 
3382 4 1 19.1999 6.09407 1.02745 
2961 4 1 18.3031 0.0668924 1.61279 
3039 4 1 11.4931 3.38542 2.14833 
3626 4 1 0.106948 19.6085 10.0179 
3474 4 1 13.252 14.2804 17.0487 
3303 4 1 2.73427 8.78702 4.56174 
3675 4 1 20.5023 12.8761 7.36124 
3120 4 1 16.9696 15.4546 17.2919 
2845 4 1 14.7868 18.5212 7.75697 
3200 4 1 31.3585 0.543515 15.2313 
3375 4 1 10.9374 14.783 2.19153 
3379 4 1 17.1778 19.8208 14.6767 
3080 4 1 28.3296 17.7091 8.38893 
3093 4 1 1.1347 0.416698 5.15394 
2856 4 1 25.4394 15.3599 3.99265 
3210 4 1 28.2029 5.80017 10.4603 
3209 4 1 20.4317 0.303449 7.5977 
3610 4 1 34.1975 12.4545 9.44908 
3770 4 1 30.728 15.7145 6.79658 
3012 4 1 16.0429 12.9866 5.48638 
3425 4 1 35.0046 16.8095 14.3336 
2901 4 1 10.126 19.1204 9.38715 
2843 4 1 29.5428 13.8639 11.8372 
3576 4 1 31.7591 1.26955 5.09017 
3471 4 1 37.3134 9.30167 7.94709 
3535 4 1 27.3462 19.7339 14.8209 
3366 4 1 5.82714 8.96243 6.93488 
3281 4 1 32.2663 14.5688 19.3885 
3312 4 1 23.6597 4.59076 4.44543 
3327 4 1 34.6353 9.32159 2.35543 
3029 4 1 6.92009 6.43368 5.79632 
3764 4 1 17.7469 15.8363 1.75264 
2884 4 1 4.62487 5.3757 4.58861 
3621 4 1 4.76261 0.792631 9.42507 
3709 4 1 3.70305 7.76686 14.3405 
3395 4 1 27.3199 15.6691 8.57497 
3533 4 1 19.429 4.56781 18.6399 
2873 4 1 17.4852 10.0944 5.20798 
3458 4 1 10.0409 0.610044 9.52133 
3253 4 1 16.364 14.8129 10.5244 
3243 4 1 23.5181 19.6856 1.87609 
2909 4 1 30.4787 14.5275 1.03629 
2948 4 1 13.5303 4.14798 11.5926 
2906 4 1 6.98953 9.5483 9.41686 
3498 4 1 26.8092 11.2354 12.2214 
2910 4 1 13.2851 19.7053 6.65958 
3111 4 1 25.0838 19.0385 4.57215 
3714 4 1 31.7465 10.1918 6.08259 
3665 4 1 13.2883 14.7971 6.51268 
3389 4 1 27.6282 6.85181 11.307 
3298 4 1 24.3553 11.4637 9.55297 
3547 4 1 28.5646 6.84814 8.98413 
3142 4 1 25.1112 10.7295 12.7676 
3256 4 1 21.6656 17.7713 12.3869 
3699 4 1 5.02247 14.9952 10.803 
3564 4 1 28.282 10.6427 10.2824 
3566 4 1 24.6733 19.0222 18.4149 
2977 4 1 33.7145 6.72107 2.76837 
3258 4 1 26.4463 17.8633 3.82992 
3318 4 1 29.3596 13.3014 13.5741 
3069 4 1 19.3491 10.6806 10.8407 
2964 4 1 12.1402 3.80666 2.76204 
3597 4 1 36.7698 16.947 10.0879 
3588 4 1 24.9401 5.35398 14.8523 
3307 4 1 38.9078 3.68856 6.76237 
3578 4 1 10.8575 9.49996 8.0945 
3189 4 1 0.39654 11.1436 10.9678 
3021 4 1 6.11119 4.11723 7.51884 
3330 4 1 38.0011 17.896 15.3832 
2813 4 1 29.7958 9.84741 17.7693 
2860 4 1 38.8379 15.5187 5.8599 
2808 4 1 1.98988 13.9082 2.42293 
3529 4 1 4.00187 14.6051 6.06639 
3478 4 1 8.87966 14.2669 8.41368 
2893 4 1 14.562 14.3696 6.03358 
3436 4 1 9.63755 4.2768 8.32332 
3201 4 1 13.7736 8.42668 10.3081 
2896 4 1 14.6721 7.9909 2.18436 
3393 4 1 21.7156 13.2384 6.82862 
2942 4 1 12.679 5.23041 12.608 
2958 4 1 12.6991 8.62565 2.29156 
3710 4 1 23.3114 1.84141 10.3034 
3343 4 1 20.5367 17.2244 10.1755 
3422 4 1 11.7349 14.4522 10.0245 
3465 4 1 20.1853 9.35414 16.5687 
2940 4 1 27.1958 10.0663 9.37861 
3169 4 1 0.21716 17.3877 11.5649 
3186 4 1 7.31698 1.35731 1.02242 
3735 4 1 32.933 0.914131 4.35284 
3333 4 1 33.6907 6.89112 6.2911 
3370 4 1 31.3337 5.58742 10.3944 
3385 4 1 39.0407 18.8963 1.76598 
3081 4 1 2.80186 11.658 4.35936 
3182 4 1 34.8794 11.7763 10.6285 
3139 4 1 30.053 17.9845 12.3264 
3283 4 1 29.7873 18.4324 9.18007 
3196 4 1 3.33883 11.386 7.38563 
3587 4 1 6.61541 17.7174 7.40215 
2801 4 1 25.9594 18.9756 7.76335 
3647 4 1 31.1478 12.7127 13.8091 
3004 4 1 12.7741 19.322 4.77341 
2992 4 1 16.3964 17.2379 3.42176 
3720 4 1 21.4563 5.50554 3.27997 
2839 4 1 15.6351 16.7213 2.12532 
3371 4 1 36.8528 16.211 5.2223 
3175 4 1 23.186 6.52455 14.6487 
3615 4 1 5.81201 3.24834 7.13592 
3015 4 1 8.64822 8.18393 10.9892 
2998 4 1 6.39483 6.52179 12.9141 
2988 4 1 10.4008 3.75091 14.2998 
3044 4 1 20.738 3.74671 13.4125 
3076 4 1 19.1205 0.454085 10.0285 
3238 4 1 16.9422 11.4422 10.9755 
3219 4 1 38.8623 19.825 4.10033 
3346 4 1 5.965 1.03762 7.20244 
3668 4 1 38.6063 6.30671 13.9666 
3793 4 1 26.5115 1.63687 12.8051 
2997 4 1 30.3847 2.52543 7.79689 
3510 4 1 10.4742 17.0697 4.79437 
3149 4 1 10.3992 8.65799 1.22297 
3159 4 1 37.0714 1.78454 4.90052 
3309 4 1 12.4566 4.08352 8.85063 
2880 4 1 26.3616 15.2421 3.70468 
2895 4 1 39.5693 1.65304 1.12435 
3310 4 1 4.02125 5.53431 7.45844 
2987 4 1 8.329 3.246 11.9979 
3664 4 1 8.2946 13.2062 13.6492 
3071 4 1 2.87983 13.3816 1.57274 
3254 4 1 39.9565 7.73133 9.06079 
3693 4 1 30.9193 8.70447 4.40633 
3212 4 1 36.9383 12.0236 11.2118 
3476 4 1 0.737751 12.5896 20.0886 
3739 4 1 34.4987 8.61997 9.80753 
3018 4 1 33.9403 1.99096 6.38406 
3068 4 1 15.4194 6.40882 2.41753 
3205 4 1 11.182 9.16734 15.6119 
3744 4 1 5.78465 6.8724 10.4349 
3638 4 1 25.2259 3.04065 2.62521 
3563 4 1 30.507 7.78741 7.80771 
3144 4 1 0.791916 12.173 11.0947 
3742 4 1 12.0463 7.04292 14.222 
3311 4 1 23.6702 12.9194 4.84823 
3634 4 1 21.3963 7.96791 6.52319 
3368 4 1 3.60254 7.17225 19.036 
3217 4 1 21.4423 2.98 1.55146 
2985 4 1 32.9937 10.5162 16.9345 
3600 4 1 13.4365 16.1207 8.00742 
2943 4 1 24.5245 1.26574 13.221 
3405 4 1 14.9289 15.6007 1.10075 
2941 4 1 11.059 7.30991 2.71282 
3336 4 1 12.4818 4.7741 13.5133 
3100 4 1 37.7943 11.0641 12.5614 
2966 4 1 10.6558 1.48714 10.5042 
3751 4 1 4.46664 17.1016 9.72521 
3390 4 1 15.5446 0.557441 14.3743 
2894 4 1 6.24137 19.6659 4.70558 
2891 4 1 27.9436 19.9567 3.81812 
3065 4 1 22.209 14.2252 28.578 
3607 4 1 35.6806 3.97977 40.2051 
3594 4 1 11.3085 6.05586 28.1718 
3315 4 1 38.4857 15.7229 29.2087 
2928 4 1 31.7738 1.21924 37.8448 
2831 4 1 39.1888 16.2512 24.5758 
3702 4 1 35.7745 14.1789 27.6096 
3058 4 1 6.76251 0.283111 31.9836 
3689 4 1 8.13743 16.6882 28.6866 
2919 4 1 34.4018 2.24407 35.6668 
3703 4 1 0.144173 1.14376 29.9514 
3442 4 1 37.4765 18.2278 25.0239 
3350 4 1 17.0109 4.19238 22.2273 
3516 4 1 7.60707 8.5527 33.3795 
3227 4 1 20.249 6.6745 28.2517 
3215 4 1 18.7291 18.5039 26.2818 
2938 4 1 23.2483 2.47407 23.481 
2897 4 1 34.4314 8.36818 37.2382 
3013 4 1 22.0042 1.05245 25.5627 
3577 4 1 14.6144 10.4736 39.2195 
3386 4 1 11.0631 16.047 40.9799 
2889 4 1 17.9206 12.6116 40.1753 
3291 4 1 8.05896 3.45645 33.3403 
3102 4 1 14.9822 2.4402 25.2741 
2823 4 1 23.472 4.21168 31.5398 
3633 4 1 35.8648 17.9735 23.8699 
3236 4 1 17.4208 18.1706 35.0555 
2965 4 1 19.7418 1.13305 22.067 
3799 4 1 1.61475 8.08531 33.7606 
3473 4 1 7.29298 9.66664 32.6726 
3067 4 1 2.52997 3.22838 33.8039 
3640 4 1 24.1896 5.64474 26.2383 
3329 4 1 30.9393 14.073 24.7441 
3365 4 1 34.4435 17.6415 25.5443 
3179 4 1 15.7339 12.8156 22.1129 
2870 4 1 26.6652 7.36997 38.1193 
3098 4 1 22.4955 9.78733 21.3632 
3704 4 1 5.10701 8.02339 40.3742 
3392 4 1 15.052 17.9716 40.7699 
3183 4 1 24.6641 7.92683 25.85 
3334 4 1 10.721 19.6007 26.1615 
3575 4 1 17.0405 16.199 25.6264 
3757 4 1 1.01036 9.03176 40.5815 
3022 4 1 23.3639 7.8796 26.5744 
3715 4 1 34.2601 8.78597 31.9444 
3619 4 1 36.1508 2.01022 22.7654 
3748 4 1 31.9184 7.31277 38.3118 
3328 4 1 11.5228 16.2523 30.2687 
3082 4 1 32.6803 1.97232 36.43 
3573 4 1 39.4592 8.04648 31.1978 
3761 4 1 21.5855 5.79237 33.8905 
3361 4 1 18.775 4.25674 38.6563 
3548 4 1 24.0815 5.95973 35.7962 
3367 4 1 10.4046 6.13186 28.7554 
3762 4 1 2.46406 8.12363 33.0175 
3667 4 1 1.54411 16.3475 27.4581 
2954 4 1 13.7444 9.73916 29.941 
3339 4 1 2.20338 9.65186 38.7924 
3758 4 1 4.7322 9.25284 30.1959 
3363 4 1 18.7973 13.9949 37.8015 
3078 4 1 27.1708 8.41326 25.7661 
3712 4 1 28.7105 13.9353 27.5338 
3099 4 1 4.63622 8.32089 27.1418 
3337 4 1 39.3985 11.7993 21.8349 
3651 4 1 14.8571 3.86512 26.7538 
3781 4 1 17.9163 6.79983 40.3311 
3260 4 1 15.0736 17.499 24.4482 
3508 4 1 23.6453 13.6951 37.8596 
3341 4 1 22.2123 6.71384 21.8412 
3025 4 1 24.5984 0.801879 32.673 
3059 4 1 22.2551 13.8292 30.2677 
3325 4 1 30.776 16.7381 21.725 
3413 4 1 23.8112 18.8764 33.3873 
3140 4 1 21.2139 16.2368 33.3119 
3437 4 1 6.49029 2.63327 26.369 
3740 4 1 18.3733 38.731 17.7022 
3622 4 1 39.2047 23.515 20.0782 
3683 4 1 4.56441 25.156 1.87424 
3143 4 1 21.1889 25.7548 13.3302 
3625 4 1 9.86162 23.4993 12.258 
3357 4 1 31.9435 22.8353 4.36265 
2818 4 1 3.79419 26.7042 7.46321 
3628 4 1 8.56862 23.722 4.41016 
3077 4 1 5.60205 26.1339 4.03637 
3723 4 1 26.6775 28.2357 14.0375 
3404 4 1 9.02957 21.0433 3.95942 
3652 4 1 27.9576 33.4147 20.6652 
2990 4 1 12.7951 21.3762 7.84152 
2811 4 1 3.30645 24.9075 7.05538 
3779 4 1 7.86878 23.1016 0.95722 
3427 4 1 16.7789 23.7253 2.97391 
2978 4 1 37.025 20.1269 10.1662 
3491 4 1 2.45004 26.9744 7.5256 
3211 4 1 7.7662 24.0986 6.60676 
3194 4 1 25.7473 26.2951 6.64176 
3324 4 1 7.22558 33.4219 7.53963 
3627 4 1 28.9192 25.6105 8.42801 
3378 4 1 13.8854 30.2392 13.9545 
2847 4 1 20.9465 36.6254 4.86925 
3374 4 1 15.5531 25.6796 4.26171 
3766 4 1 5.79712 32.9389 13.4966 
3146 4 1 22.2611 26.0472 4.06586 
3084 4 1 27.7008 25.12 8.41577 
3574 4 1 34.2789 27.96 4.28362 
3698 4 1 16.1056 25.6745 9.23107 
3501 4 1 28.9138 22.8118 11.4306 
3127 4 1 15.2996 34.9142 16.9032 
3072 4 1 22.554 23.6067 3.07607 
3304 4 1 24.6977 37.2378 1.90988 
3415 4 1 37.6906 33.3746 1.40254 
3014 4 1 19.4369 21.3246 3.04355 
3531 4 1 26.3518 32.6599 20.4925 
3229 4 1 33.3226 28.2229 15.0119 
2883 4 1 6.44763 24.4231 19.5543 
3158 4 1 28.4805 29.8809 1.41124 
3270 4 1 21.6509 36.6099 8.90128 
2872 4 1 36.4518 23.8848 15.7178 
3277 4 1 28.2567 27.4727 3.0796 
2802 4 1 18.5205 23.1565 11.7857 
2803 4 1 3.17095 31.7112 7.12633 
3582 4 1 30.8649 24.1829 3.40621 
3002 4 1 1.35148 22.5532 10.5477 
3674 4 1 37.2553 27.9438 1.76334 
2955 4 1 37.622 25.6668 2.12442 
2957 4 1 9.2659 35.368 9.63863 
3517 4 1 8.71723 32.725 5.01221 
3550 4 1 5.74615 33.5358 6.39411 
3206 4 1 0.886964 25.5063 10.3255 
3237 4 1 4.32656 32.5595 3.84686 
3088 4 1 4.81041 21.964 8.38737 
3788 4 1 7.67196 38.7513 4.99045 
3484 4 1 12.4919 37.1328 13.0129 
3430 4 1 11.9296 35.7697 10.5858 
3096 4 1 10.5245 30.0188 4.71237 
2945 4 1 7.42751 26.017 5.75048 
3541 4 1 8.70372 27.6417 1.03104 
3079 4 1 10.9522 22.3868 1.99738 
3244 4 1 10.2251 28.3676 11.8992 
3160 4 1 16.9046 35.9083 3.37179 
3499 4 1 8.39756 21.8058 11.667 
3221 4 1 16.9044 34.1175 5.81495 
3231 4 1 19.3539 24.7956 18.0834 
2841 4 1 24.1963 31.1284 4.44735 
3612 4 1 20.1938 34.2711 2.35202 
2820 4 1 21.6217 29.4447 7.90052 
3132 4 1 14.4925 26.4618 4.88128 
3047 4 1 23.4599 30.1736 14.4332 
3514 4 1 31.9477 39.0835 3.20665 
2821 4 1 24.3806 27.5597 14.7513 
2875 4 1 13.0303 38.4398 2.73602 
3421 4 1 29.8698 31.7775 2.94945 
2888 4 1 24.4745 38.0258 11.7675 
3482 4 1 24.2306 34.2645 7.73621 
3085 4 1 38.9482 38.3323 8.63502 
3568 4 1 25.6817 25.0264 4.02821 
3008 4 1 34.5816 35.8494 8.93988 
3452 4 1 33.3104 27.8037 7.27359 
3780 4 1 27.1382 28.8759 10.2015 
3172 4 1 3.47986 31.9009 9.78915 
2902 4 1 27.4563 38.767 9.12429 
3296 4 1 13.1867 20.0162 13.4958 
3722 4 1 2.57777 30.6629 20.4511 
2806 4 1 1.79212 22.7601 4.18172 
3555 4 1 38.6128 21.4362 1.62207 
3197 4 1 31.8464 29.3336 4.151 
2930 4 1 33.1628 33.3008 10.0227 
3042 4 1 13.6893 21.3631 3.42578 
3340 4 1 5.45997 30.7979 9.49841 
3654 4 1 34.3804 27.4852 0.937405 
3725 4 1 16.4038 30.3752 10.9703 
3439 4 1 3.51846 24.1411 4.07108 
3506 4 1 33.1772 27.5762 13.9355 
3048 4 1 39.0424 38.3073 1.25941 
3605 4 1 38.541 29.7179 7.90596 
2862 4 1 7.46266 30.741 7.69144 
2855 4 1 19.0758 20.8497 3.83955 
2900 4 1 15.3412 30.4908 12.3256 
3117 4 1 21.0592 21.7805 18.7151 
3678 4 1 7.11694 34.9009 3.3851 
3049 4 1 11.497 23.718 15.3065 
3729 4 1 19.0412 35.8868 1.51118 
3553 4 1 7.41107 32.945 3.06566 
3570 4 1 4.86448 27.3458 9.02819 
3522 4 1 9.37432 32.7402 2.28636 
3181 4 1 17.9957 39.4134 12.6154 
2836 4 1 25.8934 24.4149 2.32557 
3349 4 1 19.1042 22.0859 1.17244 
3557 4 1 14.5531 30.497 13.2602 
2969 4 1 9.77364 34.3683 5.70735 
3115 4 1 24.2937 37.5291 4.25114 
2921 4 1 31.717 23.49 18.3881 
3267 4 1 36.6546 25.1144 13.6342 
3245 4 1 26.64 21.4002 19.9832 
2989 4 1 4.83251 36.3362 7.35582 
3148 4 1 16.8595 29.8107 2.27616 
2882 4 1 23.8345 37.3302 7.77703 
3416 4 1 6.40887 33.2283 4.25613 
3056 4 1 13.003 32.8919 2.16375 
3466 4 1 32.0583 24.3443 4.42951 
3784 4 1 11.58 33.3771 1.1036 
2892 4 1 25.8423 36.9577 6.4761 
3659 4 1 34.8376 37.7437 10.3115 
3630 4 1 20.2913 35.2828 3.41659 
2994 4 1 29.7828 33.7283 5.26282 
3611 4 1 19.2438 20.6729 2.11161 
3497 4 1 12.9754 32.1009 11.8661 
3261 4 1 9.29953 38.1645 6.92435 
3747 4 1 15.6652 31.8398 6.17206 
3592 4 1 30.7056 33.3447 7.59782 
2846 4 1 31.7549 36.649 8.30121 
3417 4 1 38.1245 34.5809 3.16893 
3451 4 1 36.5746 28.1148 2.7515 
3429 4 1 39.5353 31.5866 12.8943 
3234 4 1 36.937 34.6695 8.81954 
3614 4 1 35.6956 21.4503 10.4437 
3017 4 1 4.43261 25.796 4.4909 
2983 4 1 34.0578 30.8586 8.04876 
3400 4 1 23.2789 22.1377 1.96689 
3110 4 1 39.364 23.9817 4.01331 
3033 4 1 12.739 25.9932 3.42686 
3513 4 1 10.9528 25.6874 7.88748 
2850 4 1 26.5998 36.0357 2.94302 
3750 4 1 13.7223 27.3192 15.8345 
3314 4 1 22.3641 39.6214 12.2348 
3676 4 1 35.6442 25.4863 4.94848 
2905 4 1 32.3683 37.1383 2.1813 
3279 4 1 15.1915 26.132 10.4513 
2868 4 1 6.72174 21.2349 5.29595 
3518 4 1 37.3975 23.5886 11.5633 
3583 4 1 14.7041 24.365 20.6278 
3224 4 1 36.6662 20.1303 8.48059 
2976 4 1 29.9543 36.4968 1.97521 
3608 4 1 13.1176 27.4784 6.02439 
3134 4 1 1.43286 34.031 1.88656 
3731 4 1 5.24625 21.4368 2.74196 
3412 4 1 5.66243 21.708 4.40423 
3373 4 1 18.7866 34.8114 2.03056 
3520 4 1 11.586 21.302 2.5269 
2863 4 1 17.2158 25.7217 2.83336 
3760 4 1 39.104 33.1988 7.78546 
2937 4 1 8.73809 26.6396 2.67592 
2971 4 1 19.2438 22.7664 2.30697 
3075 4 1 11.4239 39.6332 3.49904 
3184 4 1 8.79084 28.0855 14.779 
3737 4 1 26.0671 20.8363 5.81578 
3308 4 1 15.5343 37.5425 6.23026 
3214 4 1 24.887 26.4428 2.95044 
3459 4 1 16.7106 20.8682 7.01906 
2973 4 1 18.0213 29.6961 1.02508 
3353 4 1 15.4019 36.121 10.5812 
3487 4 1 25.5694 35.376 6.51672 
3717 4 1 16.2476 21.5675 1.79273 
2991 4 1 4.85397 20.0834 8.15465 
3671 4 1 20.1884 28.2655 10.5999 
3250 4 1 27.8487 22.7705 12.3721 
3701 4 1 20.2705 38.9321 5.91731 
3552 4 1 9.04827 36.9527 6.08819 
3697 4 1 12.6967 30.3899 5.40065 
3790 4 1 32.3992 21.3591 13.9728 
3369 4 1 21.4276 31.1064 4.87335 
3767 4 1 11.0125 27.0441 1.12634 
3424 4 1 25.1664 31.1817 1.18097 
3009 4 1 14.8702 31.7235 2.54816 
2924 4 1 32.8017 23.4584 19.9227 
3727 4 1 14.8524 20.36 10.7681 
3255 4 1 24.2071 39.6401 13.1117 
3180 4 1 24.3989 34.5274 4.19551 
3505 4 1 7.04014 39.6814 19.4196 
3273 4 1 15.9425 32.1666 3.53142 
3643 4 1 2.15119 30.4992 11.7833 
2929 4 1 2.27291 31.7395 4.99899 
3551 4 1 9.34074 21.758 2.97151 
2908 4 1 33.756 36.87 8.77447 
3268 4 1 25.2543 34.9731 16.96 
3150 4 1 32.3105 28.949 10.277 
3057 4 1 22.224 27.0915 3.72691 
3503 4 1 36.6246 34.6805 12.4106 
3641 4 1 23.8152 30.2715 7.89003 
2899 4 1 17.9339 39.3998 4.38271 
3402 4 1 5.85634 36.2088 12.9299 
2986 4 1 3.12781 27.7167 2.12069 
3687 4 1 32.3522 33.863 8.94391 
3407 4 1 27.175 24.9641 11.2894 
3174 4 1 0.335841 38.6976 19.6971 
3045 4 1 21.2436 30.4442 7.42159 
3629 4 1 0.561726 21.1769 7.18251 
2830 4 1 30.9136 22.9217 11.4912 
3420 4 1 3.25604 25.4233 9.61881 
3335 4 1 7.13822 33.849 6.48025 
3151 4 1 7.90831 30.2556 9.38188 
2952 4 1 12.9815 29.4931 3.38794 
3670 4 1 11.2814 26.1755 6.41479 
3756 4 1 20.149 22.0522 19.7207 
3037 4 1 34.5784 25.8842 6.24303 
3515 4 1 29.5793 27.1694 14.3414 
3106 4 1 12.0056 34.1979 7.96868 
2962 4 1 10.2557 33.8763 4.08483 
3265 4 1 10.8176 22.4166 4.14157 
3661 4 1 21.7814 36.6681 11.1344 
3554 4 1 31.2216 25.6047 1.94019 
3053 4 1 27.3852 29.9741 6.3206 
3188 4 1 24.9108 25.2126 12.7156 
3116 4 1 4.25631 38.7739 1.09849 
3399 4 1 19.223 30.3958 7.59169 
3394 4 1 19.4371 34.0849 8.94746 
3109 4 1 18.5684 37.7154 11.0188 
3213 4 1 33.4991 22.4005 1.25693 
2879 4 1 22.9106 38.1879 6.77518 
2814 4 1 29.1012 33.8523 14.0916 
3326 4 1 33.4318 34.7135 17.562 
3264 4 1 37.4341 31.3329 6.06513 
3546 4 1 38.8601 33.0872 20.1708 
3728 4 1 36.5244 28.6785 14.5705 
2996 4 1 32.095 31.5972 8.68508 
3359 4 1 23.9041 30.0385 6.48832 
3064 4 1 30.4886 20.9676 9.70317 
2912 4 1 38.7192 22.4375 4.93697 
3591 4 1 38.6076 27.8864 3.97363 
3561 4 1 28.2185 29.2557 4.41523 
3138 4 1 37.0198 34.5585 0.99804 
3170 4 1 33.5346 39.0402 11.2798 
3249 4 1 4.60443 35.2124 17.1757 
3316 4 1 30.4951 37.4141 14.394 
3726 4 1 33.275 38.1644 15.8817 
3198 4 1 4.47472 37.6263 7.63644 
3567 4 1 31.923 35.9095 19.0307 
3660 4 1 4.49511 32.763 7.90867 
3097 4 1 10.8717 31.2336 4.49786 
3019 4 1 24.722 32.3377 7.62017 
3173 4 1 0.719956 35.3158 1.73735 
3771 4 1 34.3014 37.3101 2.29921 
2995 4 1 0.748883 37.4191 2.41651 
3288 4 1 13.4901 36.1816 3.26626 
3232 4 1 9.1694 28.0806 5.28207 
3101 4 1 22.5264 32.0955 20.7465 
3571 4 1 24.3133 29.7632 14.6502 
3562 4 1 7.65861 30.0174 15.4071 
2864 4 1 38.3758 39.5445 5.83103 
3650 4 1 0.769482 36.3886 6.75268 
3613 4 1 14.6631 38.5401 4.2926 
2903 4 1 7.18949 36.1552 4.37227 
3463 4 1 5.57925 36.4303 5.80902 
3242 4 1 19.0057 32.9604 9.04314 
3043 4 1 36.1677 27.3567 5.08337 
3121 4 1 22.0668 35.4502 8.60041 
3490 4 1 28.4928 30.3883 11.6115 
3193 4 1 12.1389 39.7291 11.3478 
3719 4 1 28.4232 35.1273 5.79732 
3736 4 1 7.63491 34.5168 9.33303 
3305 4 1 37.3607 36.7726 15.1252 
3419 4 1 39.7337 26.3537 2.36052 
3287 4 1 21.4894 38.0841 1.54113 
3617 4 1 21.1902 34.4756 2.65096 
3469 4 1 15.1825 31.7299 11.5348 
3749 4 1 27.3138 30.7697 14.803 
3398 4 1 22.1505 28.6293 3.88772 
2876 4 1 31.2393 24.1386 6.70158 
3752 4 1 34.8591 31.8427 2.42679 
3203 4 1 32.3284 25.51 1.13969 
3063 4 1 16.4192 21.6964 3.58963 
3447 4 1 15.7912 23.435 5.55778 
3636 4 1 27.0745 24.6651 1.6625 
3509 4 1 32.1 23.6065 3.58519 
3777 4 1 29.2052 38.5 8.64439 
3162 4 1 8.63436 28.8112 1.02936 
3763 4 1 27.5085 31.0179 2.13399 
2960 4 1 26.2099 38.1667 6.59663 
3524 4 1 15.0587 37.5675 3.30816 
3293 4 1 3.71013 34.2659 11.5037 
3544 4 1 3.73999 37.2929 10.6016 
2933 4 1 25.5669 20.2342 8.47139 
2917 4 1 7.54268 24.9125 8.62837 
3454 4 1 25.553 31.9785 1.98705 
3603 4 1 37.0053 26.173 6.36933 
2859 4 1 37.2871 38.097 1.17921 
3537 4 1 9.96643 32.2021 8.15682 
2826 4 1 9.23767 24.6938 10.679 
2904 4 1 10.6986 26.2227 13.5433 
3732 4 1 17.7779 24.3897 11.7733 
3294 4 1 10.1497 27.5849 4.79992 
3542 4 1 7.23917 31.1537 5.5974 
3066 4 1 9.27663 26.6987 5.59502 
3464 4 1 10.3474 22.1179 8.48435 
3691 4 1 29.0225 20.7678 12.0894 
3786 4 1 22.3986 20.0054 9.16233 
3342 4 1 1.40023 33.6949 15.1783 
3252 4 1 39.7869 39.447 4.34352 
3345 4 1 29.1723 21.613 1.58721 
3351 4 1 27.342 27.1501 10.79 
2926 4 1 24.6552 24.8964 3.72162 
2825 4 1 36.145 20.3855 10.6697 
3178 4 1 15.2577 36.7637 12.4796 
3384 4 1 30.3258 21.9929 3.09257 
3235 4 1 10.611 29.8538 6.77591 
2951 4 1 27.217 22.2087 2.06957 
2832 4 1 15.5442 26.9836 10.0555 
3035 4 1 26.1169 35.2869 19.8802 
3060 4 1 37.2413 26.5904 10.9933 
2866 4 1 25.3868 31.0577 9.30065 
3595 4 1 36.8485 24.535 7.81492 
3125 4 1 32.6351 22.1452 7.59312 
3381 4 1 39.536 31.8549 15.1576 
3556 4 1 4.1332 26.4226 10.54 
3672 4 1 18.5442 22.2484 5.1544 
3271 4 1 14.234 38.1386 5.71367 
3222 4 1 25.5261 37.7569 15.6692 
3026 4 1 11.9042 37.4778 8.01893 
3523 4 1 35.2461 36.2352 4.33212 
2885 4 1 10.4135 30.1338 7.9624 
3606 4 1 8.44989 30.7835 8.26719 
3534 4 1 7.60921 24.5186 13.4559 
3572 4 1 14.5443 32.6182 5.93456 
3032 4 1 18.015 36.0853 11.3337 
3644 4 1 17.6671 27.9506 5.0428 
3598 4 1 15.5676 36.3207 5.6912 
3141 4 1 32.8209 20.1959 9.28409 
3662 4 1 21.1745 32.7786 7.35218 
3462 4 1 13.5991 35.0727 12.4183 
3530 4 1 33.1178 35.809 5.99763 
3322 4 1 31.0172 29.9488 7.80859 
3584 4 1 23.1058 21.3855 5.28507 
2819 4 1 39.166 32.7292 14.3119 
3401 4 1 12.5147 36.837 19.8717 
2993 4 1 28.3221 38.9103 13.9134 
3114 4 1 31.7815 30.9081 16.3757 
3396 4 1 35.5678 22.5244 12.2856 
3356 4 1 1.61425 28.4765 5.31135 
3485 4 1 8.04238 36.438 14.3262 
3354 4 1 2.40222 22.5076 9.58087 
3468 4 1 7.96243 20.4347 5.66439 
2822 4 1 10.5858 37.0042 14.6952 
3190 4 1 19.5895 32.8701 1.52827 
3332 4 1 25.4217 22.8677 10.2311 
3433 4 1 4.40157 24.5014 3.12044 
3694 4 1 32.7099 37.4408 12.1601 
2878 4 1 19.8817 32.425 13.7892 
3655 4 1 17.9726 27.3707 2.43881 
3495 4 1 19.9003 27.0882 7.52235 
2999 4 1 32.1283 37.156 5.37149 
3593 4 1 19.548 25.0249 6.763 
3299 4 1 18.6138 26.3862 3.22585 
3602 4 1 33.6439 33.394 13.0511 
3525 4 1 38.5693 33.0095 9.362 
3156 4 1 38.671 25.8961 19.6538 
2947 4 1 21.3199 38.1909 14.0035 
3624 4 1 23.8441 30.5665 2.49664 
2848 4 1 9.52396 24.9126 8.92123 
3331 4 1 22.0161 21.7954 3.32677 
2816 4 1 0.509059 37.6259 15.2597 
2920 4 1 30.3885 21.3553 6.57766 
3696 4 1 33.748 37.0053 5.77146 
3372 4 1 0.791186 33.7126 7.56356 
2949 4 1 31.324 38.5555 14.5248 
3688 4 1 4.83501 23.6147 7.27456 
3708 4 1 6.08132 29.4432 10.7275 
3112 4 1 29.885 32.0344 6.3522 
2857 4 1 12.4218 23.7725 9.43533 
3527 4 1 8.65934 20.3581 1.9835 
2871 4 1 5.63409 40.0116 8.72831 
3545 4 1 38.3674 22.5744 11.0245 