ITEM: TIMESTEP
101000
ITEM: NUMBER OF ATOMS
750
ITEM: BOX BOUNDS pp pp ff
0 20
0 20
0 62
ITEM: ATOMS id type q x y z 
2970 4 1 0.203228 0.473363 1.19768 
3078 4 1 3.31384 2.25144 3.44746 
2616 4 1 1.2689 1.75328 3.55118 
2699 4 1 2.21953 3.42174 2.77392 
2698 4 1 1.31558 2.34076 1.55365 
3076 4 1 1.52348 0.657489 1.52598 
2992 4 1 2.16031 1.66256 1.95156 
3192 4 1 2.60407 1.22421 1.32372 
3158 4 1 1.83094 3.17865 2.38823 
3008 4 1 1.44882 1.47865 2.75064 
2855 4 1 2.7776 1.5022 2.74169 
3040 4 1 1.53293 1.35069 1.4263 
3071 4 1 2.13249 3.0279 1.30864 
2938 4 1 2.70679 0.41521 1.76112 
2724 4 1 0.322276 2.26954 2.8069 
2544 4 1 1.16429 0.939933 2.455 
2912 4 1 0.513823 0.400273 2.02482 
2512 4 1 0.196105 1.48729 1.48649 
2662 4 1 2.28917 0.975117 2.41937 
2657 4 1 0.529482 0.806638 3.20615 
2539 4 1 2.72835 2.45721 3.02333 
3182 4 1 2.8686 2.66521 1.85558 
2456 4 1 3.44042 19.8614 1.44039 
2786 4 1 0.327299 3.76658 2.13882 
2659 4 1 0.731172 2.13508 1.70763 
2472 4 1 0.0419559 0.739082 2.19167 
2947 4 1 1.54268 3.25417 3.52101 
2700 4 1 0.980769 3.00338 1.10161 
2602 4 1 0.914387 2.7231 1.82143 
2648 4 1 0.492559 0.136695 2.85596 
3047 4 1 2.79818 19.8468 2.44508 
3147 4 1 19.846 1.22985 1.9193 
2599 4 1 1.54153 0.873806 3.77152 
3069 4 1 4.43434 0.618591 2.68498 
3066 4 1 2.79983 0.648701 2.39861 
2556 4 1 3.78515 0.604851 3.37115 
2957 4 1 5.29785 0.927408 5.60235 
2615 4 1 6.61137 0.137751 1.2306 
2467 4 1 7.41412 19.2605 1.13103 
2755 4 1 7.25327 2.35 3.53491 
2738 4 1 13.5661 2.50088 2.92389 
2793 4 1 13.463 3.30444 3.28854 
2829 4 1 10.4707 4.04188 3.71307 
2537 4 1 8.84339 2.54473 1.74713 
2838 4 1 12.2037 0.909098 2.80953 
2914 4 1 13.2859 3.20425 2.41404 
2996 4 1 15.0303 1.34387 1.88225 
2849 4 1 13.7438 2.73259 4.68021 
2463 4 1 14.8581 2.66353 3.58308 
3152 4 1 14.7759 1.71658 2.89836 
2974 4 1 14.5586 0.326008 2.9569 
2915 4 1 13.3746 1.79171 2.31631 
2989 4 1 15.8176 2.72391 3.23366 
2907 4 1 14.5623 2.28418 1.75838 
3129 4 1 15.5776 2.82021 2.46484 
2588 4 1 16.016 2.6971 1.84106 
3174 4 1 13.6292 2.89499 2.29012 
2552 4 1 15.8871 3.30581 3.95398 
2600 4 1 15.6019 1.06957 3.2231 
3176 4 1 14.7904 2.03813 1.07723 
2951 4 1 13.6763 2.18879 1.92796 
2744 4 1 16.2628 2.44018 2.36651 
2626 4 1 13.6595 3.00435 3.66096 
3041 4 1 16.5443 1.71562 2.56921 
2961 4 1 16.005 3.25144 2.27043 
2827 4 1 16.2228 0.979231 3.27182 
2621 4 1 16.4385 1.33803 4.38648 
2909 4 1 16.007 1.68886 1.5635 
2851 4 1 15.017 3.1144 1.14877 
2478 4 1 14.1805 2.85959 1.20413 
3138 4 1 15.7183 19.6865 2.49604 
2801 4 1 16.0919 1.4643 2.00076 
2916 4 1 16.5887 0.573637 1.76136 
2656 4 1 15.2823 0.519437 3.71397 
3013 4 1 19.2611 1.22284 2.05452 
3194 4 1 19.1376 1.6898 3.03986 
2908 4 1 18.9549 1.33994 2.57055 
3123 4 1 19.1477 1.24003 1.48011 
3056 4 1 18.4324 1.17877 1.55873 
3184 4 1 19.745 1.88541 1.17065 
3075 4 1 17.1118 0.421826 1.6653 
3180 4 1 17.1877 2.72999 3.58608 
2674 4 1 18.7486 1.09634 3.56613 
2972 4 1 19.4639 2.66886 1.39724 
3039 4 1 17.8623 1.05879 1.38231 
2826 4 1 17.9423 2.22076 2.08459 
2513 4 1 18.4995 2.44375 2.45449 
2504 4 1 16.8452 1.67507 2.02344 
2803 4 1 18.7963 2.70648 1.26328 
2749 4 1 16.7931 0.205979 3.69124 
2752 4 1 17.0284 0.950645 3.70747 
2585 4 1 17.9988 2.27362 1.35844 
2886 4 1 15.5155 2.23923 3.17362 
2714 4 1 16.7274 1.01426 2.31721 
2939 4 1 17.3062 1.10386 2.97704 
2735 4 1 18.3213 1.02006 3.15201 
2965 4 1 17.602 2.69926 1.32156 
2754 4 1 16.6003 0.903204 2.85696 
2759 4 1 16.8955 2.07392 2.88255 
2688 4 1 19.2958 2.52694 2.79337 
2730 4 1 18.0953 2.97393 2.19538 
3098 4 1 16.9306 0.560128 2.66069 
3114 4 1 19.1044 3.12419 2.77282 
2800 4 1 16.6009 1.13033 3.84818 
2704 4 1 18.3561 1.98358 3.40912 
2825 4 1 19.1226 2.50507 3.90311 
2969 4 1 19.7135 3.04282 3.7548 
3053 4 1 17.085 2.89709 1.36751 
2646 4 1 17.6007 2.46739 3.83907 
3020 4 1 17.3577 2.23785 1.01027 
2850 4 1 19.0831 2.50104 1.87465 
2564 4 1 17.6093 19.9664 3.0148 
3005 4 1 0.344659 19.9448 3.51574 
3050 4 1 18.3906 1.41209 4.02817 
3065 4 1 17.7639 0.883277 3.39648 
3083 4 1 17.1027 0.219827 3.05141 
2906 4 1 2.08833 3.71425 2.25138 
3173 4 1 0.489676 4.22998 1.96748 
2603 4 1 0.583946 5.31089 4.66395 
2508 4 1 0.869645 3.80442 3.36504 
2534 4 1 1.27344 4.69073 3.22866 
2933 4 1 0.934828 4.98639 1.47514 
2799 4 1 0.143399 5.96333 1.07008 
2982 4 1 1.7403 3.8528 1.45516 
2612 4 1 0.943069 4.13591 2.91137 
2579 4 1 2.75207 4.62621 1.88641 
2466 4 1 2.74217 4.7842 2.9231 
2680 4 1 3.78689 4.77543 1.66077 
3198 4 1 7.3346 6.05336 3.89393 
3064 4 1 9.43284 3.33089 1.5856 
3120 4 1 11.6069 5.17926 1.75882 
2542 4 1 12.6073 3.95282 2.3974 
2721 4 1 11.1601 5.03303 1.39499 
2881 4 1 12.3348 5.38624 3.15513 
3113 4 1 12.4629 4.21779 3.77422 
2857 4 1 12.7427 3.86394 1.8111 
2479 4 1 11.7374 2.99046 1.60851 
2486 4 1 13.6862 4.51528 4.08677 
2959 4 1 12.5528 4.34722 1.23739 
3010 4 1 11.6654 4.04155 1.11387 
2607 4 1 12.3539 7.65355 1.74877 
2753 4 1 11.0379 5.83229 1.14515 
2986 4 1 14.2132 3.47294 1.72917 
2592 4 1 15.3252 4.00919 3.52133 
3043 4 1 14.113 4.95615 2.1277 
2613 4 1 13.7641 5.01169 3.35683 
3030 4 1 13.9703 5.61425 1.6064 
2547 4 1 13.5069 2.9216 1.26882 
2814 4 1 13.6866 4.51348 2.17186 
2705 4 1 15.0948 4.15949 2.91193 
2708 4 1 14.2098 4.44522 3.13822 
2945 4 1 15.1053 4.65631 1.29997 
2583 4 1 14.5089 6.23767 2.15907 
2737 4 1 14.7789 5.73435 2.28476 
3018 4 1 15.7562 3.58758 1.27067 
3134 4 1 14.2445 4.87232 2.94298 
2863 4 1 14.8989 3.51013 2.08395 
2935 4 1 14.5844 4.02936 0.998053 
2787 4 1 16.1381 6.39692 3.84444 
3183 4 1 14.4692 4.20523 4.10502 
3115 4 1 15.8658 4.89871 2.20254 
2830 4 1 16.3884 7.42353 2.09874 
2816 4 1 14.722 4.19337 1.58757 
2858 4 1 15.663 5.85297 1.15341 
2465 4 1 16.977 5.54289 1.33485 
2582 4 1 13.2694 3.75197 3.1357 
2703 4 1 17.0241 3.46466 1.46487 
3082 4 1 19.1885 3.97076 3.07967 
2917 4 1 19.7371 4.49164 1.27188 
2783 4 1 18.792 4.64069 2.84384 
2485 4 1 17.0548 3.35154 2.78405 
2502 4 1 17.2302 6.66204 2.805 
3032 4 1 17.5866 4.64848 2.65495 
2975 4 1 18.4933 5.85984 2.66854 
2484 4 1 17.6738 5.3649 1.197 
2587 4 1 18.3495 4.53566 1.88824 
2900 4 1 19.4544 5.2725 1.11268 
2617 4 1 17.9032 4.58465 1.16749 
3100 4 1 19.3532 4.37016 2.31085 
2483 4 1 17.1748 4.39328 2.46001 
2728 4 1 18.2038 4.23477 1.38509 
3111 4 1 17.6418 3.71674 2.52599 
2931 4 1 17.6939 4.13325 2.08813 
2668 4 1 18.3864 3.40947 1.71339 
2770 4 1 18.4301 3.81304 1.17687 
2867 4 1 17.4654 3.89183 3.55459 
2499 4 1 18.5296 3.98564 3.01404 
2747 4 1 19.0293 5.92692 2.14335 
2785 4 1 17.2587 4.63671 1.67747 
3009 4 1 19.3167 4.17106 3.62486 
2635 4 1 3.04655 7.98989 1.26712 
2944 4 1 2.60613 6.65129 1.24603 
3187 4 1 9.25247 6.48049 1.78117 
3105 4 1 8.72327 8.55733 1.32431 
2459 4 1 8.49163 12.8747 4.36311 
2930 4 1 9.70143 5.40873 1.24221 
2723 4 1 12.7854 8.21256 1.85352 
2820 4 1 17.8188 8.12923 1.23862 
3107 4 1 1.54196 9.34667 5.40064 
2610 4 1 15.9914 6.50344 1.93029 
2691 4 1 17.7143 8.75856 2.62381 
2756 4 1 2.99 13.493 2.77469 
2865 4 1 0.47053 13.1001 0.950846 
2491 4 1 0.77584 13.157 3.53314 
2687 4 1 3.13405 13.0991 1.76331 
3077 4 1 4.86283 12.9253 1.31387 
2940 4 1 5.30623 13.1971 3.32065 
3024 4 1 8.00509 12.702 1.87288 
3122 4 1 9.08136 11.8797 1.56662 
2877 4 1 7.14268 12.4679 1.25404 
3079 4 1 10.3918 12.2972 3.28499 
2976 4 1 6.0915 9.73938 2.21893 
2875 4 1 6.49741 13.0028 1.24479 
2795 4 1 11.6468 13.0154 1.74717 
2451 4 1 16.5968 13.8963 3.28945 
3092 4 1 18.2102 14.2387 1.71768 
3169 4 1 17.0652 10.3488 2.92826 
2625 4 1 17.7192 13.536 2.56855 
3177 4 1 17.8821 13.0952 2.01718 
2853 4 1 18.8376 13.1172 2.13709 
3103 4 1 1.59344 14.6105 4.79201 
2729 4 1 2.02378 14.7506 1.85222 
2733 4 1 0.962357 14.4993 1.42034 
3022 4 1 2.80696 14.2101 1.88319 
3011 4 1 1.86419 13.382 1.97453 
2529 4 1 1.41576 15.3266 3.14106 
2879 4 1 1.67177 13.8911 1.71251 
2541 4 1 1.80411 15.3329 1.8261 
2953 4 1 1.28614 14.7303 2.48725 
3026 4 1 2.37884 15.4761 2.4229 
2591 4 1 1.3011 14.8378 3.90517 
2716 4 1 2.7961 16.7035 3.39196 
2748 4 1 1.64825 15.8553 1.8155 
2963 4 1 1.52563 16.2134 2.48393 
2874 4 1 0.659171 16.3485 2.4206 
2928 4 1 1.46252 14.0768 3.2445 
3073 4 1 2.7654 14.5464 2.23314 
3031 4 1 2.56463 16.2082 3.65117 
3130 4 1 1.40169 17.1774 2.06852 
2736 4 1 2.36337 15.6806 1.14251 
2922 4 1 1.16074 15.195 2.3895 
2457 4 1 2.35266 15.9679 2.78895 
3062 4 1 2.65318 13.9441 3.22808 
2717 4 1 2.10352 13.254 2.80715 
2565 4 1 0.510993 15.6077 1.81137 
2487 4 1 2.4766 14.6025 1.6381 
3127 4 1 0.545633 14.1612 2.20942 
2840 4 1 0.400948 15.7981 3.16432 
2898 4 1 19.7385 15.3523 2.9919 
2722 4 1 0.784477 14.6109 3.06855 
2571 4 1 0.720832 16.5468 3.20998 
3163 4 1 1.4487 16.8246 1.16911 
2870 4 1 1.558 16.8519 3.57265 
2952 4 1 1.46802 15.4042 4.64573 
3085 4 1 1.15406 13.6526 2.74465 
2821 4 1 1.69606 16.154 3.51761 
2868 4 1 4.72803 13.6541 1.55469 
2489 4 1 6.34422 13.6065 1.20155 
3166 4 1 6.34248 14.3053 1.81276 
2608 4 1 3.08239 14.5085 2.6955 
2950 4 1 3.28968 14.459 1.27022 
2701 4 1 4.76495 13.7274 2.5894 
3136 4 1 3.92461 14.8309 2.12516 
2525 4 1 3.31362 15.1273 1.74066 
2954 4 1 4.1953 13.7443 2.51888 
2967 4 1 5.71865 14.704 4.24844 
3049 4 1 5.16095 15.96 1.94619 
2518 4 1 5.80764 14.8201 2.1832 
2844 4 1 4.08371 15.7228 1.97424 
2971 4 1 6.02654 15.8988 3.1356 
2901 4 1 5.88117 16.5008 1.40257 
2549 4 1 5.93816 13.317 1.96032 
2988 4 1 5.49592 15.4896 3.39891 
2726 4 1 5.36184 16.0434 3.84306 
2593 4 1 6.14975 14.7247 1.58803 
2638 4 1 6.71578 17.6591 1.23656 
2713 4 1 3.37656 13.5923 2.31122 
2732 4 1 5.6828 13.4884 1.1448 
2453 4 1 5.51323 17.072 1.74734 
2455 4 1 5.94058 15.8637 1.25385 
2828 4 1 5.12467 16.3048 2.4019 
2471 4 1 3.30928 16.1339 3.0932 
2791 4 1 4.2495 15.0775 2.85022 
2985 4 1 5.94296 16.4351 4.13852 
2676 4 1 6.29567 14.0805 2.76184 
2966 4 1 6.46908 15.1938 1.9671 
2995 4 1 7.00949 15.3388 2.66914 
2711 4 1 3.58966 16.6232 1.98845 
2675 4 1 7.48028 15.2294 3.09097 
2742 4 1 7.17427 15.9749 1.12936 
2506 4 1 6.04947 13.6312 3.85169 
2597 4 1 6.71405 14.3818 2.42113 
2889 4 1 6.823 16.3546 2.08101 
3118 4 1 8.66154 15.3624 1.52521 
2501 4 1 8.60502 14.9364 1.94117 
2624 4 1 9.12587 11.5878 3.20002 
2778 4 1 11.3616 15.6838 1.50075 
2654 4 1 13.7263 15.545 1.35583 
3027 4 1 12.7309 15.9628 1.04909 
2452 4 1 15.9727 16.8912 2.34303 
2568 4 1 13.1374 13.7415 2.24444 
3019 4 1 15.0767 15.6693 1.40862 
2823 4 1 16.1289 14.4613 3.07052 
3135 4 1 15.567 12.1546 2.03756 
2651 4 1 16.7432 16.8175 3.36841 
2987 4 1 16.1896 15.5591 2.96307 
3197 4 1 16.0834 16.472 2.80827 
3084 4 1 16.8069 16.4612 2.13758 
2955 4 1 18.4706 13.8756 3.21489 
3091 4 1 19.9909 16.3213 2.38645 
2891 4 1 19.6955 14.546 2.89334 
2558 4 1 16.9953 13.3127 1.18718 
2666 4 1 0.0134666 13.8008 2.87921 
2805 4 1 19.3676 14.2003 2.27159 
2671 4 1 18.7856 14.9611 1.02378 
3143 4 1 17.2872 14.6253 1.84793 
2761 4 1 17.2002 16.6239 1.76432 
2991 4 1 19.1131 14.5386 1.05981 
2943 4 1 17.1529 13.9033 1.51189 
3042 4 1 19.7438 15.1677 2.4085 
2707 4 1 18.7434 14.6387 2.29392 
2618 4 1 17.518 15.9714 1.72476 
3054 4 1 18.0812 14.8567 2.66056 
2739 4 1 16.7752 15.858 1.15194 
2474 4 1 18.8571 14.3701 3.17922 
2664 4 1 18.7185 15.4737 1.56607 
2763 4 1 19.2867 14.4348 1.86119 
3139 4 1 19.4965 16.0025 2.28453 
2808 4 1 18.0447 15.8603 3.54127 
2934 4 1 17.837 16.7882 2.42201 
2994 4 1 18.0561 13.6335 3.72692 
2677 4 1 17.5335 15.9402 3.11322 
2897 4 1 18.7468 15.9878 2.99846 
3131 4 1 18.5491 16.6331 1.85776 
2649 4 1 17.7766 15.4089 3.32619 
3038 4 1 0.757799 0.724565 1.2084 
2678 4 1 1.40394 19.8142 2.48852 
2809 4 1 0.280977 17.5311 2.03547 
2594 4 1 2.15208 16.7923 2.24582 
2682 4 1 2.18399 16.6062 3.47116 
3037 4 1 1.02438 18.0628 3.9676 
2523 4 1 19.9727 17.742 1.06978 
3014 4 1 2.73083 17.6584 2.83884 
3125 4 1 0.656979 17.2566 3.06801 
2520 4 1 0.468739 17.0563 1.78685 
2527 4 1 1.71815 18.6203 2.10436 
2859 4 1 3.15677 17.9775 1.78578 
3003 4 1 0.421357 19.5315 2.72411 
2497 4 1 2.78514 18.5197 2.0452 
2498 4 1 1.67931 18.2108 1.61121 
2531 4 1 1.23781 17.7625 1.32321 
2488 4 1 1.32508 17.8345 2.8592 
3109 4 1 2.62889 17.3105 2.14109 
2693 4 1 2.0135 17.8043 3.44901 
2999 4 1 2.93039 18.1344 3.48725 
2660 4 1 1.35066 19.147 3.38423 
2477 4 1 2.38796 18.826 1.82431 
3199 4 1 2.05152 17.8996 1.42791 
2993 4 1 0.362463 18.8882 1.71922 
2927 4 1 0.930292 18.3708 2.41567 
2804 4 1 0.5687 17.7378 1.5418 
2847 4 1 19.7005 0.207561 2.5597 
2709 4 1 4.56826 18.9368 4.05935 
3034 4 1 4.43495 16.8014 3.28223 
2623 4 1 6.02854 17.7676 2.0635 
2948 4 1 4.14364 17.4959 2.38412 
2672 4 1 3.94083 17.1845 1.78409 
3059 4 1 3.97015 16.6353 3.61124 
2895 4 1 6.30242 18.1128 2.42338 
2872 4 1 4.18089 16.8871 1.25699 
2921 4 1 5.57509 17.5973 1.78259 
3188 4 1 4.92144 19.9534 2.64028 
2543 4 1 4.12166 18.7205 2.31087 
2960 4 1 4.6256 17.0758 1.05824 
2482 4 1 5.8834 18.213 1.37617 
2620 4 1 5.30617 16.6253 3.35488 
2643 4 1 4.64868 19.184 2.58829 
2614 4 1 6.01219 18.8699 2.20239 
2681 4 1 6.21752 18.7259 1.44715 
3175 4 1 4.8744 19.4694 3.04733 
2557 4 1 5.12088 17.0531 1.39278 
2837 4 1 4.87098 18.1586 3.76225 
2767 4 1 5.3382 18.4891 2.37272 
3140 4 1 5.58729 17.3627 3.40468 
2570 4 1 6.59872 18.3087 4.29046 
2611 4 1 3.84869 19.5176 3.18452 
2573 4 1 4.78559 19.9106 1.66658 
2640 4 1 4.65574 17.0467 3.73483 
2550 4 1 5.96273 16.7986 3.62878 
2769 4 1 10.9994 0.410128 1.29085 
2839 4 1 6.79795 17.0987 1.1541 
2802 4 1 7.63708 16.2746 1.20701 
3057 4 1 11.2183 0.104294 4.73717 
2776 4 1 6.59381 19.8121 1.8305 
2862 4 1 9.17349 19.371 1.39545 
2507 4 1 8.29462 19.3205 1.96207 
2768 4 1 6.21748 17.8973 3.18516 
2630 4 1 7.15559 17.7838 3.20965 
2580 4 1 13.5975 0.0200729 2.41802 
3137 4 1 12.5698 19.0528 3.02741 
2490 4 1 15.3359 18.6844 3.14612 
2841 4 1 14.387 17.0254 1.23081 
2856 4 1 16.1152 18.1386 4.27256 
2595 4 1 13.9055 18.4607 3.54164 
3052 4 1 17.8073 19.0427 1.2918 
3146 4 1 14.8364 18.3836 3.72922 
2936 4 1 14.8454 17.393 2.79755 
2476 4 1 16.0746 17.3751 3.28804 
2882 4 1 19.7854 16.9323 2.63353 
2665 4 1 18.9173 17.6947 1.12538 
2634 4 1 17.1196 16.3645 3.32287 
2869 4 1 16.7403 16.3927 1.24752 
2686 4 1 19.6601 19.7201 2.2136 
3150 4 1 17.8064 16.704 1.88923 
2873 4 1 17.035 0.157257 2.08702 
2555 4 1 16.485 19.3714 3.58444 
2606 4 1 19.0972 19.8298 2.43192 
2493 4 1 18.9878 18.31 1.12382 
2584 4 1 17.7552 18.4715 1.55345 
2832 4 1 19.3091 17.5727 1.98312 
3044 4 1 18.5354 17.3609 3.08479 
3104 4 1 17.99 17.7084 2.99213 
2883 4 1 18.3197 17.5421 1.90882 
3112 4 1 17.2862 17.9804 3.78114 
2998 4 1 0.69155 19.6653 1.09456 
3087 4 1 19.0099 18.0836 1.96773 
2575 4 1 19.3754 0.309965 1.67169 
2692 4 1 16.6653 18.4539 1.94939 
2956 4 1 17.839 19.3328 2.8472 
3074 4 1 17.8477 19.8856 1.23388 
3128 4 1 19.11 18.5637 1.66578 
2517 4 1 19.6839 18.2783 1.26042 
3126 4 1 18.5473 19.0921 1.6327 
2560 4 1 19.6536 17.4998 3.74211 
2958 4 1 18.2313 17.786 1.234 
3170 4 1 19.7261 19.3552 3.49172 
3178 4 1 18.8245 17.0044 2.56579 
3191 4 1 18.8302 19.3299 2.18313 
2777 4 1 18.9656 19.3822 1.36131 
2990 4 1 17.5409 16.6968 3.01024 
2604 4 1 19.712 19.3532 1.49195 
2673 4 1 0.17274 18.0728 1.89016 
2864 4 1 18.916 18.1489 2.89745 
2679 4 1 17.8546 16.9652 3.54716 
2562 4 1 17.4142 16.9676 3.89244 
3060 4 1 18.4508 17.6833 2.63628 
3036 4 1 17.9353 18.0858 2.45047 
2526 4 1 18.7812 18.6268 2.83995 
2601 4 1 19.4882 16.8841 2.19562 
3154 4 1 18.3065 16.7612 3.47092 
2978 4 1 19.5392 18.4592 3.74748 
2949 4 1 18.9525 18.0024 3.4786 
3153 4 1 17.8492 18.6406 3.45845 
2650 4 1 0.357332 0.321097 4.15215 
2533 4 1 3.19416 3.78596 5.65751 
2715 4 1 0.33871 2.11034 5.07574 
3155 4 1 2.48011 3.10312 3.22548 
2636 4 1 0.764779 3.20742 3.07631 
3142 4 1 0.180154 1.71001 3.80893 
2500 4 1 3.17018 1.70424 3.141 
3097 4 1 0.827651 1.48533 3.98767 
2546 4 1 1.52751 1.51816 4.12755 
2710 4 1 0.14208 1.20787 4.71963 
3067 4 1 0.702339 2.36661 4.73339 
2771 4 1 0.91728 0.126536 4.18166 
2551 4 1 2.17602 0.341036 4.05877 
2731 4 1 2.40955 19.9199 4.43741 
3021 4 1 8.45909 1.45943 5.52869 
2690 4 1 11.9228 18.8094 4.35292 
2627 4 1 10.6071 0.171723 3.34413 
2899 4 1 15.4228 2.23649 4.32132 
3016 4 1 14.6956 2.15379 5.13918 
2652 4 1 14.7261 1.0485 3.88379 
2661 4 1 14.3134 3.02452 4.97848 
2905 4 1 15.2755 2.03433 5.54672 
3124 4 1 16.5276 3.12055 3.98784 
2788 4 1 14.919 3.02595 4.58179 
3133 4 1 15.3708 3.26317 4.78602 
2782 4 1 15.4007 0.951361 4.22437 
3080 4 1 15.914 3.37949 6.12417 
3000 4 1 16.8059 19.4306 4.61873 
3017 4 1 16.2363 1.12459 4.82144 
2695 4 1 14.6402 1.22836 4.98326 
2590 4 1 16.3292 1.54145 5.33467 
2843 4 1 15.766 2.48966 6.46674 
2765 4 1 16.6669 0.727702 5.12145 
3121 4 1 16.3984 3.96566 5.56324 
2669 4 1 15.8741 1.80935 6.23467 
3172 4 1 16.9074 2.38039 5.40812 
2473 4 1 19.1469 1.06264 3.93901 
2718 4 1 19.5705 2.47719 4.15122 
2893 4 1 19.6312 1.10321 4.3708 
2968 4 1 18.7162 3.55324 5.77075 
3007 4 1 18.8821 0.690442 4.48386 
3193 4 1 18.6649 3.16243 5.21064 
2888 4 1 16.3175 3.67076 2.9121 
3046 4 1 17.244 1.47207 5.65397 
3119 4 1 18.5361 0.131017 5.49945 
3196 4 1 18.7741 2.03723 4.44653 
2572 4 1 17.5881 18.6681 5.61885 
2962 4 1 17.6322 0.895772 4.98508 
2866 4 1 18.1842 1.82836 4.67601 
2685 4 1 17.5984 1.96845 3.98989 
3160 4 1 18.8679 2.14357 5.00666 
2619 4 1 18.237 2.86987 3.71588 
2561 4 1 18.6615 0.71292 5.75483 
3033 4 1 17.3424 2.68736 5.50367 
2548 4 1 18.1061 1.38986 5.78656 
2697 4 1 19.123 3.7435 5.50368 
2741 4 1 18.4858 1.02375 4.63925 
3116 4 1 2.1942 2.88326 4.22635 
2530 4 1 0.474456 3.89419 3.71028 
2781 4 1 3.08055 5.34304 5.69249 
2481 4 1 8.78374 5.10775 2.77693 
2641 4 1 13.2307 5.82168 3.24272 
2743 4 1 13.1681 5.83206 2.52855 
2629 4 1 15.0045 5.66855 5.80106 
2658 4 1 13.9417 5.62844 5.24336 
2846 4 1 14.7336 2.98273 5.40845 
3101 4 1 15.7677 3.84371 6.34614 
2810 4 1 16.2411 5.13849 4.00689 
2923 4 1 15.2436 4.29169 5.03933 
2461 4 1 16.2483 4.21127 3.54487 
3035 4 1 14.3551 5.55363 4.44197 
2796 4 1 15.9274 3.91186 4.87815 
2845 4 1 14.7874 4.53426 5.23193 
2822 4 1 14.7892 3.44296 5.63938 
2511 4 1 17.7365 4.95869 4.95039 
2833 4 1 18.4713 3.53557 3.79709 
2670 4 1 17.4552 3.98491 4.03109 
2598 4 1 19.1133 4.86805 4.70156 
2563 4 1 15.8341 5.57559 5.75575 
2764 4 1 19.3854 3.51778 4.35992 
2941 4 1 17.8399 3.15747 5.75464 
3004 4 1 18.1216 7.48852 2.17691 
2647 4 1 17.4271 3.46757 4.17672 
2578 4 1 18.2102 3.44659 4.77841 
2746 4 1 18.4698 4.41119 4.04185 
2532 4 1 16.9839 3.91751 5.40721 
2789 4 1 17.8822 4.03677 4.45057 
3132 4 1 16.9167 4.92594 4.73265 
3141 4 1 16.98 3.72165 4.90479 
3159 4 1 19.1784 3.94757 4.58469 
3095 4 1 7.83675 8.22143 5.91134 
2720 4 1 12.9278 11.9614 3.04625 
3090 4 1 15.8198 5.8665 3.32882 
3086 4 1 13.8077 8.67476 1.56293 
3195 4 1 15.5485 5.88277 5.36686 
2848 4 1 17.6962 8.46652 7.13802 
3156 4 1 2.51826 12.6152 4.88907 
2609 4 1 2.64889 14.2746 4.20778 
3165 4 1 2.8546 13.1628 3.40935 
2834 4 1 5.49767 12.1675 2.04152 
3081 4 1 6.50882 10.7098 8.36132 
2642 4 1 8.32634 12.9236 7.52843 
2773 4 1 14.0334 13.0265 4.28595 
2469 4 1 15.1029 11.9441 4.78324 
2983 4 1 16.5765 9.07127 4.03373 
2745 4 1 15.5887 11.8642 3.85415 
2505 4 1 5.63973 13.7715 5.23514 
3148 4 1 1.36602 13.9594 3.75499 
2861 4 1 3.05115 15.4774 4.54014 
2462 4 1 19.5326 14.0281 3.58721 
3051 4 1 0.220392 14.3806 3.81516 
2792 4 1 0.415403 15.49 4.79294 
2852 4 1 0.478404 14.8008 4.15026 
2946 4 1 0.847283 15.5092 3.54544 
3002 4 1 3.35704 16.4388 4.56421 
3094 4 1 1.59419 16.2046 4.08747 
2885 4 1 3.14352 15.0188 5.40445 
2819 4 1 3.12986 14.8203 4.44889 
2910 4 1 2.10653 15.0035 4.66974 
2904 4 1 2.38812 15.1848 3.49675 
2811 4 1 3.29927 14.3567 4.03399 
3151 4 1 4.79004 15.0847 4.4597 
2925 4 1 6.54257 15.366 3.85825 
3102 4 1 4.17387 15.5405 3.7159 
2683 4 1 4.44565 17.4355 5.48717 
3157 4 1 4.01899 14.2505 5.03219 
2813 4 1 4.29194 15.0799 5.39523 
2696 4 1 3.58675 16.9426 4.84473 
2633 4 1 6.04229 15.5483 4.74216 
2894 4 1 4.80435 13.0961 3.55044 
3048 4 1 3.33228 15.9454 4.37589 
2522 4 1 6.20467 14.921 5.91329 
2631 4 1 5.11098 14.6355 5.06034 
2540 4 1 5.14105 15.843 5.28891 
2528 4 1 5.44359 13.6947 4.27426 
3088 4 1 5.48005 16.3481 5.02241 
2806 4 1 6.98941 16.4586 7.85556 
3045 4 1 5.84456 16.7121 5.3887 
2750 4 1 11.5053 16.5876 5.11101 
3186 4 1 16.325 15.5891 4.02508 
2524 4 1 16.463 14.893 3.7218 
2684 4 1 16.5196 14.9846 4.46772 
2725 4 1 17.6449 13.5341 4.76186 
3145 4 1 16.85 16.4598 4.73176 
2860 4 1 18.7871 13.4702 5.54652 
3171 4 1 18.2517 13.4479 4.7079 
3167 4 1 19.0403 13.8659 3.26289 
2812 4 1 17.1962 14.4357 4.74081 
2818 4 1 17.6198 14.9226 3.97331 
2760 4 1 17.8265 16.4718 4.37684 
2798 4 1 18.7014 16.8742 4.46913 
2581 4 1 19.8175 15.9218 4.96067 
2553 4 1 19.7664 14.6017 3.89329 
2503 4 1 17.9803 15.6767 5.37343 
2790 4 1 19.2277 16.4617 4.71053 
2964 4 1 18.2009 16.0405 4.86417 
2926 4 1 0.572663 16.0441 4.99337 
2774 4 1 19.087 16.5009 5.9031 
2794 4 1 18.8089 15.8439 4.47135 
3029 4 1 19.4025 16.3147 4.18037 
2780 4 1 16.487 15.1898 5.0642 
2831 4 1 1.21814 17.3232 5.62924 
2554 4 1 2.60394 19.5754 3.35129 
2519 4 1 1.34359 18.8828 5.98981 
2835 4 1 3.70776 16.934 5.3189 
2902 4 1 3.02927 17.1727 4.61375 
2973 4 1 0.867018 17.4873 6.45009 
3089 4 1 1.27979 18.8643 4.54848 
2464 4 1 0.691513 19.4388 5.17875 
3028 4 1 0.953861 19.3751 4.16435 
2653 4 1 2.81545 0.286524 4.00578 
2644 4 1 2.13172 17.6872 5.12621 
2510 4 1 2.05357 17.2598 4.25793 
2836 4 1 2.38437 17.7011 4.39525 
2516 4 1 2.58026 18.9094 4.535 
2784 4 1 0.802104 17.4389 4.89724 
2596 4 1 2.68074 18.0569 4.18228 
2817 4 1 0.197994 17.6502 4.18538 
2559 4 1 1.54671 18.0367 4.53726 
2779 4 1 3.29904 17.2013 3.94251 
2628 4 1 3.85406 18.2088 5.51124 
2766 4 1 0.612082 19.0456 3.76475 
2887 4 1 4.86049 17.9506 4.34046 
2871 4 1 4.08921 16.3969 4.06381 
2495 4 1 5.23021 19.1461 3.25773 
2880 4 1 5.57676 16.4651 4.481 
2918 4 1 2.394 18.6857 5.13858 
2842 4 1 6.34436 17.7581 4.14849 
2605 4 1 4.22862 0.254744 4.11272 
2458 4 1 5.33467 18.5298 4.32306 
2892 4 1 3.9306 17.7864 4.79359 
3110 4 1 9.6231 18.1602 4.68978 
3179 4 1 13.8074 16.9146 2.89422 
3058 4 1 16.3084 17.1787 4.69609 
2924 4 1 16.6395 18.8798 5.21119 
3061 4 1 16.4285 19.2748 4.15265 
2913 4 1 16.1372 18.1118 4.97736 
2772 4 1 19.763 19.4158 4.74145 
2775 4 1 0.300279 0.61775 4.70627 
3185 4 1 0.218909 0.0964314 6.63919 
2480 4 1 19.138 0.227358 5.10789 
2632 4 1 19.0099 17.1801 5.49175 
3015 4 1 18.19 18.8178 4.26799 
3023 4 1 1.02722 18.0233 4.99683 
3025 4 1 16.3215 17.5571 4.27654 
2521 4 1 17.1536 18.0251 4.80949 
3189 4 1 17.4956 17.0172 6.21885 
2911 4 1 19.1562 18.3595 4.47674 
2807 4 1 19.4816 16.7059 5.357 
2645 4 1 18.8035 16.2202 4.95394 
3012 4 1 17.5347 16.7566 4.68987 
2702 4 1 18.7702 0.0748512 3.47975 
2663 4 1 18.1397 18.101 4.61137 
3108 4 1 18.304 18.1048 5.08851 
2758 4 1 17.3033 18.6255 4.29494 
2460 4 1 0.26343 19.4423 5.45992 
2694 4 1 18.8493 19.2491 4.2533 
2797 4 1 16.6744 18.3022 5.12672 
2937 4 1 12.0045 4.31128 11.8575 
2637 4 1 11.0199 2.25765 5.81216 
2574 4 1 17.9264 19.9346 8.02425 
2468 4 1 14.3223 3.74564 10.6957 
2903 4 1 6.60524 8.10541 10.4784 
3106 4 1 1.69167 15.1281 8.27464 
2576 4 1 12.9566 13.9741 8.79718 
2979 4 1 0.467026 17.4794 7.81402 
3117 4 1 19.5481 16.6265 11.9102 
2896 4 1 9.54165 16.2625 9.21169 
2494 4 1 19.3627 12.4256 8.27089 
3161 4 1 7.6053 0.943118 14.2403 
2980 4 1 6.93042 18.2783 7.1227 
3093 4 1 3.871 17.0444 11.5911 
2535 4 1 12.5138 18.3142 9.04827 
2567 4 1 17.4704 0.451161 9.24113 
2942 4 1 4.10008 18.718 12.9008 
3006 4 1 5.99546 18.4961 15.0879 
2757 4 1 9.6214 17.0195 14.8371 
2470 4 1 19.9727 2.61156 18.6029 
2854 4 1 15.097 7.6377 16.4236 
2538 4 1 6.22195 18.7304 27.9332 
2536 4 1 19.2208 6.73439 18.7478 
3055 4 1 5.56762 14.8534 16.6584 
3096 4 1 17.3404 10.2887 18.5878 
2981 4 1 11.4842 14.1823 21.6778 
2890 4 1 2.20242 1.0965 18.16 
2878 4 1 10.3423 17.7603 18.5373 
2977 4 1 12.0321 6.65466 24.5161 
2655 4 1 18.4541 6.3926 24.8069 
2712 4 1 3.52953 10.5727 25.5847 
2919 4 1 8.40552 12.874 23.1408 
3068 4 1 4.73925 16.8059 27.7738 
2689 4 1 18.312 15.3608 24.598 
2496 4 1 4.0229 15.4936 24.5652 
2492 4 1 3.68338 6.28457 28.5437 
2577 4 1 7.02527 15.2321 27.9603 
3190 4 1 9.56214 5.88423 30.4692 
2545 4 1 4.87066 3.03397 31.2228 
3063 4 1 11.7439 5.01975 46.1151 
2762 4 1 13.0946 15.9496 32.3582 
2509 4 1 13.2754 7.72294 33.4834 
2984 4 1 11.3331 8.36815 33.0234 
3144 4 1 14.644 9.1595 32.4862 
3001 4 1 15.6134 14.0092 32.708 
2569 4 1 19.61 14.8464 32.1111 
2997 4 1 5.09173 3.85325 36.4663 
2876 4 1 16.3808 4.74897 38.5407 
3162 4 1 15.154 8.52709 35.9353 
2706 4 1 5.43554 11.9555 35.3213 
2566 4 1 7.82312 17.6322 36.1259 
2734 4 1 7.15597 2.11242 41.2943 
3099 4 1 4.39014 20.0056 40.9527 
2751 4 1 8.80804 17.0097 41.1788 
2639 4 1 14.6396 18.3154 41.4707 
2719 4 1 1.82907 2.81461 43.7887 
3168 4 1 6.38223 6.8214 43.2387 
2815 4 1 17.6628 7.31801 44.2487 
3200 4 1 12.6148 14.9235 42.9819 
2454 4 1 18.8123 16.0613 46.174 
3072 4 1 2.57156 3.73967 46.2575 
2920 4 1 4.02056 9.39993 32.1548 
2589 4 1 8.82476 2.10378 47.7178 
2515 4 1 9.92588 4.3675 47.2225 
3149 4 1 4.09314 10.5229 49.1422 
2740 4 1 10.2075 12.5939 47.5421 
2667 4 1 17.6036 13.1475 49.3424 
2824 4 1 9.1773 18.1017 46.5554 
2929 4 1 15.0379 0.0196058 52.9707 
2727 4 1 4.83457 7.41637 53.5615 
2514 4 1 3.53791 6.26637 51.6509 
2586 4 1 9.06266 6.88183 52.1254 
2622 4 1 11.9378 7.87393 51.506 
2884 4 1 12.96 13.6438 60.4841 
3181 4 1 18.4639 16.2626 57.2849 
3070 4 1 16.2808 17.5231 55.2764 
2932 4 1 14.4679 1.39772 60.8838 
2475 4 1 5.44157 4.6397 60.8617 
3164 4 1 17.8444 13.4101 56.2876 
ITEM: TIMESTEP
102000
ITEM: NUMBER OF ATOMS
750
ITEM: BOX BOUNDS pp pp ff
0 20
0 20
0 62
ITEM: ATOMS id type q x y z 
2970 4 1 18.9867 0.574932 2.05553 
3078 4 1 1.32112 1.92959 3.33873 
2616 4 1 0.931154 2.11406 3.85071 
2698 4 1 2.22029 2.44297 2.28082 
3076 4 1 2.25309 0.426776 1.28214 
2992 4 1 2.28606 0.877375 2.22348 
3192 4 1 2.3945 1.43596 1.71587 
3158 4 1 1.56633 3.94395 1.85463 
3008 4 1 1.45051 1.6849 2.79013 
2855 4 1 1.63991 2.43664 1.75605 
3040 4 1 1.75723 0.949803 1.20338 
3071 4 1 2.30222 2.64376 3.77848 
2938 4 1 2.36404 19.8592 1.10182 
2724 4 1 1.17803 2.45272 2.14553 
2544 4 1 1.62087 0.671052 3.00993 
2912 4 1 1.22539 1.43832 1.75532 
2512 4 1 0.804908 1.05923 1.58099 
2662 4 1 2.56299 0.917851 2.67315 
2657 4 1 19.5996 1.16291 3.90567 
2539 4 1 2.36594 3.96834 3.14583 
3182 4 1 5.36789 1.18678 6.26161 
2659 4 1 19.3579 3.23102 1.39372 
2472 4 1 0.713516 0.664916 1.22787 
2947 4 1 0.283722 3.86265 3.62874 
2700 4 1 0.836148 3.97363 2.1919 
2602 4 1 0.623968 3.7823 1.2673 
2648 4 1 0.782088 19.06 3.90147 
2599 4 1 2.02312 0.93367 3.84551 
3066 4 1 2.9013 1.8351 3.25265 
3038 4 1 1.61308 3.45568 1.45099 
3155 4 1 0.0699151 2.21707 5.82907 
2636 4 1 1.30259 3.63669 2.36851 
3142 4 1 0.403599 1.37856 3.84101 
2500 4 1 1.45296 3.4524 4.15682 
3069 4 1 2.39196 2.40871 3.07201 
2556 4 1 3.39953 0.617785 2.81071 
2615 4 1 5.97432 18.6948 2.64604 
2755 4 1 0.20495 4.45669 4.5403 
2537 4 1 5.71876 18.9039 1.95215 
3064 4 1 13.4202 1.67864 1.09435 
2838 4 1 13.324 4.00661 2.50933 
2914 4 1 12.7756 3.16072 2.33763 
2479 4 1 11.8863 4.38677 4.01044 
2769 4 1 13.6805 2.54008 2.60475 
2627 4 1 10.9256 19.8295 1.75998 
2738 4 1 13.1571 3.19323 3.36035 
2793 4 1 12.4705 4.98553 2.88512 
2996 4 1 14.6496 2.04502 2.67471 
2463 4 1 14.8899 3.16813 5.0294 
3152 4 1 15.4905 2.37377 3.24277 
2974 4 1 15.8239 0.821898 3.64508 
2915 4 1 13.3743 19.8854 2.09581 
2989 4 1 15.4625 3.21944 1.77147 
2907 4 1 14.814 2.32223 1.11377 
3129 4 1 15.1034 2.80892 3.16399 
2588 4 1 16.4088 1.78181 2.78487 
3174 4 1 13.9577 3.31947 2.58828 
2600 4 1 15.8691 0.52393 2.30896 
3176 4 1 16.0117 2.40018 1.74327 
2951 4 1 14.3599 5.04851 1.16115 
2744 4 1 14.9502 1.28688 1.13534 
2626 4 1 14.9049 0.814725 3.21573 
3041 4 1 15.394 1.74303 2.45084 
2961 4 1 16.0961 3.62685 2.8249 
2827 4 1 15.6527 2.61668 2.81535 
2909 4 1 16.4019 2.97173 1.45482 
2851 4 1 14.6245 3.30681 1.89977 
2478 4 1 15.6144 2.22889 1.45939 
2801 4 1 15.2273 2.80422 1.49912 
2916 4 1 16.635 0.183144 1.48055 
2656 4 1 14.1643 1.43278 3.46995 
2886 4 1 14.6031 2.72957 2.76008 
2754 4 1 16.9741 0.345513 2.99286 
2547 4 1 14.3737 4.70287 1.94864 
2580 4 1 13.8652 1.62306 1.81488 
3147 4 1 19.9085 19.749 1.52978 
3013 4 1 0.445099 1.58556 2.14054 
3194 4 1 19.9682 1.5556 3.1664 
2908 4 1 19.6626 1.14923 2.70476 
3123 4 1 19.2707 0.948594 1.30515 
3056 4 1 18.6551 0.845634 1.56866 
3184 4 1 0.158111 0.940252 2.3874 
3075 4 1 17.5694 1.17525 1.31376 
3180 4 1 17.6035 2.84683 3.17324 
2674 4 1 18.5034 0.725474 4.33154 
2972 4 1 18.405 3.78741 1.13503 
3039 4 1 19.1055 1.4866 1.08748 
2826 4 1 17.7228 1.84278 1.72866 
2513 4 1 19.108 2.19669 3.00669 
2504 4 1 16.1665 0.799013 2.62686 
2803 4 1 0.354241 2.55635 1.16925 
2749 4 1 17.9161 0.520424 4.34854 
2752 4 1 17.5082 2.17797 4.47767 
2585 4 1 19.4202 1.72682 1.8123 
2714 4 1 17.2074 0.637789 1.34981 
2939 4 1 18.0037 0.297822 2.4344 
2735 4 1 19.1231 0.785951 2.93185 
2965 4 1 18.2658 2.00165 1.54228 
2759 4 1 16.7477 2.18164 3.00683 
2688 4 1 19.1874 3.06995 3.64705 
2730 4 1 18.3859 2.89704 1.04004 
3098 4 1 17.149 0.886273 2.97615 
3114 4 1 18.2255 3.19308 3.99219 
2704 4 1 18.1769 2.56555 3.37796 
2969 4 1 18.7364 4.04426 3.03652 
3053 4 1 17.455 5.38272 1.10112 
2646 4 1 18.1902 2.06845 2.78884 
3020 4 1 17.5573 2.29505 1.05849 
2850 4 1 19.9454 2.84458 1.02913 
3065 4 1 17.8717 0.260293 3.7211 
3083 4 1 17.9682 19.3288 1.98473 
2485 4 1 16.8493 2.3952 2.50014 
2847 4 1 0.0708223 19.4624 3.45991 
2873 4 1 17.7454 1.17109 2.78977 
2575 4 1 19.6527 19.998 2.39129 
2619 4 1 18.028 2.02183 3.9032 
2702 4 1 18.6695 0.238786 3.98553 
2699 4 1 3.04616 3.41453 1.60622 
2786 4 1 1.43124 4.92406 3.12219 
2906 4 1 3.30812 4.77022 1.53968 
3173 4 1 19.9248 4.45646 2.08472 
2508 4 1 2.24549 4.42673 3.51081 
2534 4 1 4.09692 11.6458 1.00596 
2933 4 1 0.931082 4.89375 1.65666 
2799 4 1 18.9252 8.7098 2.91326 
2982 4 1 1.08372 5.61065 1.74892 
2612 4 1 3.21714 5.22451 1.87753 
2579 4 1 3.07637 3.46661 2.64733 