ITEM: TIMESTEP
11000
ITEM: NUMBER OF ATOMS
250
ITEM: BOX BOUNDS pp pp ff
0 15
0 15
0 22
ITEM: ATOMS id type q x y z 
1073 4 1 4.9971 3.30007 2.20559 
1164 4 1 0.973298 2.85594 1.28942 
957 4 1 3.90174 3.55695 2.12815 
992 4 1 3.70003 1.31045 3.02301 
1144 4 1 1.58422 1.57224 1.95182 
1153 4 1 1.21189 1.37057 3.6378 
1093 4 1 3.47583 0.557593 2.40328 
978 4 1 4.08902 4.91097 2.01382 
980 4 1 4.38129 2.08623 1.69074 
972 4 1 5.38377 1.34223 1.60265 
1101 4 1 1.83343 0.589634 4.3136 
1043 4 1 7.6068 1.36862 2.06373 
959 4 1 6.81688 4.31156 1.05672 
1129 4 1 7.48853 2.35879 1.37969 
1011 4 1 6.9706 4.04138 6.71795 
1126 4 1 1.5431 7.51863 7.42385 
1095 4 1 6.96094 1.30129 3.26187 
1163 4 1 7.22558 0.479626 2.7573 
962 4 1 8.78135 0.336077 4.46322 
1119 4 1 8.37827 7.09183 4.02236 
1175 4 1 14.2037 5.15815 7.55788 
1033 4 1 7.77976 3.31531 1.41364 
1015 4 1 8.1846 0.486906 3.64194 
1063 4 1 6.57994 2.4122 2.69757 
1135 4 1 10.7246 1.86565 2.30648 
1002 4 1 8.86772 1.13874 1.37165 
1160 4 1 11.2492 0.837832 1.00722 
1183 4 1 10.0621 3.77043 2.38015 
977 4 1 0.164581 1.23456 4.43075 
1048 4 1 14.6846 0.221941 4.08336 
968 4 1 14.9785 1.21091 2.28451 
1110 4 1 13.3636 3.64285 1.62847 
1023 4 1 1.35927 1.5927 10.4867 
1190 4 1 7.78666 7.50045 0.994819 
1181 4 1 0.765624 4.29238 2.7438 
1006 4 1 2.37067 3.85141 3.81395 
1194 4 1 0.672888 5.79853 3.81397 
1058 4 1 3.15337 3.97737 1.34598 
1139 4 1 1.91902 6.78475 1.32595 
1123 4 1 14.87 5.53176 2.47651 
1150 4 1 2.35903 5.87346 2.96191 
1081 4 1 13.8767 5.75797 2.84062 
1162 4 1 3.17452 4.31379 2.4365 
1107 4 1 4.22739 5.9385 1.32706 
1196 4 1 5.45162 5.73642 2.18757 
1136 4 1 4.31332 5.78973 3.06322 
986 4 1 7.66891 5.74671 3.43226 
999 4 1 4.64762 5.35569 4.02948 
998 4 1 10.9567 5.71465 7.29075 
1167 4 1 7.1266 6.80276 2.70554 
1177 4 1 10.0751 6.79066 1.6851 
1022 4 1 9.98536 6.24762 2.77069 
984 4 1 9.60591 6.2463 3.86489 
955 4 1 9.19764 4.45505 2.37131 
1145 4 1 6.92833 6.21709 1.0604 
1187 4 1 11.4188 6.77065 1.65071 
1032 4 1 13.9568 2.55482 2.20761 
1158 4 1 12.0873 4.54312 3.23204 
1138 4 1 13.8691 4.65415 1.6234 
1155 4 1 13.6744 4.50957 2.62614 
1152 4 1 11.0508 4.26792 1.24752 
1010 4 1 12.8126 4.80393 7.22179 
1122 4 1 13.7101 6.31161 4.91136 
1198 4 1 1.67625 3.3141 3.15127 
1161 4 1 3.62605 0.866936 5.29487 
954 4 1 0.687733 3.79447 5.10599 
990 4 1 1.84323 3.47649 4.60352 
975 4 1 3.10263 1.08582 4.08025 
1065 4 1 14.8985 3.41658 6.32122 
1085 4 1 4.16674 7.2906 1.52315 
1052 4 1 4.34554 3.50089 4.15719 
976 4 1 2.65248 6.90261 2.3527 
1066 4 1 6.63812 7.3586 5.97079 
1128 4 1 4.94182 1.76082 5.89035 
960 4 1 3.629 1.93643 6.03157 
1116 4 1 6.47638 7.45375 3.49873 
1143 4 1 2.26977 1.60526 4.69264 
1090 4 1 3.95197 2.76807 6.78156 
1179 4 1 6.94242 2.30732 4.08467 
1055 4 1 9.53108 1.90602 6.55285 
1020 4 1 11.1631 2.39749 3.21604 
1199 4 1 11.118 5.19293 8.15936 
1100 4 1 6.40485 1.19922 5.87668 
1104 4 1 10.3954 6.96905 6.91538 
983 4 1 7.47242 2.01522 5.24796 
1156 4 1 12.0969 0.622767 4.6688 
1185 4 1 5.81132 0.157068 6.40325 
1004 4 1 11.4948 1.24443 5.42045 
981 4 1 13.3573 0.512102 7.13274 
1045 4 1 5.51692 7.33065 6.94653 
1084 4 1 12.6346 3.44666 3.40534 
1112 4 1 13.2239 2.19069 4.04502 
1140 4 1 11.9315 3.59684 4.4899 
970 4 1 13.6715 2.83813 3.26899 
966 4 1 13.1114 3.365 4.28494 
1117 4 1 1.43022 3.25714 8.79536 
1069 4 1 11.905 1.5783 4.02884 
1120 4 1 5.35963 0.314393 4.17237 
1097 4 1 7.35249 6.66973 3.68397 
1014 4 1 2.13719 4.78022 7.53559 
961 4 1 11.6625 5.94378 6.55275 
1109 4 1 0.510355 0.00111033 6.08073 
1195 4 1 14.0891 2.69204 7.5971 
1192 4 1 7.93509 5.10088 5.4231 
1060 4 1 4.69057 4.04224 6.48367 
1168 4 1 3.76873 5.33687 4.71836 
1180 4 1 14.4248 7.17244 6.69548 
1056 4 1 4.83156 5.61642 5.1682 
963 4 1 5.32215 6.13735 4.39329 
952 4 1 4.10086 3.55157 7.52474 
1172 4 1 9.99833 5.04807 3.41591 
1169 4 1 8.95776 4.482 3.36433 
1154 4 1 9.32594 4.37741 4.97591 
969 4 1 7.53525 4.37 4.71721 
1121 4 1 9.07663 2.96687 4.98606 
1089 4 1 10.704 7.17208 4.37144 
1088 4 1 12.462 5.97226 4.53445 
988 4 1 12.8957 6.32936 7.20963 
1021 4 1 10.9813 7.4368 3.49874 
997 4 1 2.12419 0.0553945 20.7617 
1103 4 1 7.53745 2.84021 20.9121 
1108 4 1 7.17384 7.13533 11.7905 
1064 4 1 2.59655 6.29489 11.5518 
1036 4 1 2.73716 11.1262 1.28136 
1051 4 1 3.63338 10.8272 1.81441 
1026 4 1 3.18634 9.87538 2.95203 
1178 4 1 1.32875 11.9212 3.92574 
1071 4 1 0.3636 7.49264 1.43655 
1173 4 1 3.85342 7.90462 3.58214 
1105 4 1 3.86042 9.33134 1.38905 
1171 4 1 4.5058 10.2157 1.53114 
1124 4 1 7.14329 9.08026 2.26338 
1186 4 1 5.77683 8.29902 3.38025 
1148 4 1 3.89788 8.71958 4.37998 
1053 4 1 7.29281 8.73718 1.25061 
1062 4 1 9.57558 10.4063 1.17507 
1197 4 1 10.6743 8.97544 1.91257 
1115 4 1 10.8687 12.4571 1.70957 
1061 4 1 2.3464 14.6716 3.88275 
1170 4 1 8.70494 10.1776 1.81653 
1188 4 1 9.03746 9.92937 2.85796 
1191 4 1 12.6247 10.7816 8.30297 
1189 4 1 6.89395 8.03377 2.68074 
1003 4 1 14.082 11.1213 2.22383 
1074 4 1 11.0548 10.702 1.05272 
1174 4 1 13.0376 8.90719 1.02718 
1072 4 1 13.9453 10.0086 2.26907 
1114 4 1 0.824388 12.4847 2.25551 
1127 4 1 1.05364 13.5238 1.46231 
1094 4 1 2.99692 13.2203 0.950374 
1047 4 1 1.01795 10.3418 2.57854 
1005 4 1 2.73948 12.8582 2.68813 
1024 4 1 14.8824 11.8431 2.08324 
958 4 1 4.08436 14.8255 1.49387 
1151 4 1 3.94065 13.6372 1.95286 
1017 4 1 10.9843 14.646 3.33415 
1078 4 1 3.00537 11.6143 5.69399 
1025 4 1 1.34557 11.8321 1.60739 
1012 4 1 5.76612 10.3467 2.75953 
1157 4 1 8.48018 13.3577 2.11273 
1133 4 1 5.95169 12.0331 3.66303 
1083 4 1 3.71972 12.9803 3.07797 
1118 4 1 5.72977 13.9902 1.41061 
1019 4 1 0.338153 7.66797 4.31241 
964 4 1 12.3989 14.1144 6.49829 
1054 4 1 9.66024 10.9221 2.83075 
1041 4 1 11.221 13.4361 1.10574 
1159 4 1 0.195155 8.37078 3.57659 
1079 4 1 9.52131 11.8719 3.05952 
979 4 1 12.1711 13.4014 2.52086 
1149 4 1 10.6434 12.3248 3.71678 
1102 4 1 11.4309 12.7097 3.34261 
1040 4 1 13.0063 11.7679 2.45475 
1018 4 1 13.6419 12.4617 3.37989 
1193 4 1 12.0185 12.4218 2.21788 
965 4 1 12.1833 8.63895 7.10428 
987 4 1 12.4269 12.401 3.42457 
1099 4 1 2.62248 9.63348 4.88315 
1130 4 1 1.07977 8.43218 4.58345 
989 4 1 13.5895 8.02323 6.16576 
993 4 1 0.618762 9.44998 4.64539 
1050 4 1 1.45809 8.8487 6.04347 
967 4 1 1.73472 7.74757 5.48184 
1142 4 1 0.305593 10.5164 7.91701 
1098 4 1 13.2101 10.179 6.8389 
1027 4 1 4.82064 10.4612 6.83666 
1001 4 1 5.32379 8.62302 5.80377 
1068 4 1 3.39398 11.6698 3.93255 
1096 4 1 5.68373 10.4476 6.38328 
971 4 1 8.08295 10.0503 3.70542 
1009 4 1 4.14676 11.2751 6.11189 
1134 4 1 7.12318 9.60674 5.29489 
956 4 1 12.2204 8.57062 1.82204 
1042 4 1 8.6976 10.0497 5.70924 
1087 4 1 1.81922 14.2879 4.83857 
1046 4 1 1.52963 7.79928 1.57967 
1165 4 1 10.6042 10.2411 4.4954 
1113 4 1 9.21808 9.31849 4.86168 
1038 4 1 10.8459 11.0423 3.99386 
995 4 1 2.17733 7.7411 2.95497 
1008 4 1 13.1788 11.3208 4.682 
1028 4 1 0.89248 10.2295 5.54559 
1049 4 1 12.382 11.9948 6.62181 
1035 4 1 9.61873 11.7377 5.80247 
1007 4 1 12.9957 8.44426 4.93694 
1031 4 1 2.76265 11.9299 4.60626 
1147 4 1 1.95463 13.2665 6.00767 
1125 4 1 1.38174 12.7781 3.58309 
1184 4 1 14.594 12.9786 8.61451 
1086 4 1 2.81203 9.91099 6.8361 
1034 4 1 1.44484 9.57595 8.43761 
951 4 1 1.324 12.3689 6.96858 
1030 4 1 4.06794 13.4596 4.82482 
1106 4 1 7.21364 12.3932 2.88732 
982 4 1 5.14337 13.528 5.13799 
1029 4 1 6.20041 13.2321 5.14634 
1132 4 1 3.55065 12.6378 5.71938 
1141 4 1 6.73191 12.596 4.1247 
1000 4 1 7.77433 12.2678 6.02141 
991 4 1 11.3517 12.5519 6.46509 
1182 4 1 9.06836 13.4531 4.48241 
974 4 1 11.0056 13.0761 4.38652 
1044 4 1 13.076 11.5196 3.6258 
994 4 1 10.5804 12.4166 5.69449 
1059 4 1 13.4683 13.8429 5.84233 
1037 4 1 12.4126 10.9361 5.33669 
1146 4 1 14.4046 14.3876 3.1947 
985 4 1 11.7062 11.514 5.98497 
1166 4 1 14.0844 10.7367 5.22882 
973 4 1 14.2245 12.0839 4.25841 
1016 4 1 1.02322 9.08532 3.32041 
1057 4 1 7.00424 13.6789 4.76194 
1039 4 1 0.639407 14.8606 4.99207 
1082 4 1 10.5557 14.7348 1.1299 
1080 4 1 0.159086 13.8796 2.29655 
996 4 1 12.3153 14.6874 2.1366 
1176 4 1 3.05129 8.20839 3.02459 
1070 4 1 13.0197 7.70176 1.16937 
1077 4 1 2.5773 14.5407 6.3675 
1200 4 1 4.51543 8.11565 6.52859 
953 4 1 11.7704 7.62113 2.80765 
1137 4 1 12.3716 7.57417 1.94557 
1013 4 1 3.83962 7.61221 2.48734 
1067 4 1 13.3802 7.50274 5.26203 
1076 4 1 11.3029 14.9431 6.46248 
1092 4 1 10.0131 11.9497 13.1106 
1091 4 1 8.80898 10.4571 11.5092 
1111 4 1 7.02897 12.7659 12.7573 
1131 4 1 8.28862 12.8452 19.8979 
1075 4 1 13.4438 14.1131 20.4188 
ITEM: TIMESTEP
12000
ITEM: NUMBER OF ATOMS
250
ITEM: BOX BOUNDS pp pp ff
0 15
0 15
0 22
ITEM: ATOMS id type q x y z 
1164 4 1 2.33457 2.20868 1.8 
1153 4 1 0.536054 0.670612 3.37213 
1101 4 1 1.98656 1.6738 2.84949 
968 4 1 0.369322 1.29579 2.18435 
977 4 1 1.0511 1.67204 3.14587 
1080 4 1 1.97595 0.207055 1.25673 
1093 4 1 2.93237 1.84983 2.59248 
1146 4 1 0.157503 0.0395225 2.50469 
992 4 1 6.56534 2.31081 1.08797 
1073 4 1 5.0229 2.49006 1.01797 
957 4 1 4.69894 2.44438 2.35323 
980 4 1 7.40073 0.514929 1.35141 
1129 4 1 6.75473 3.07634 2.82316 
1120 4 1 6.5202 1.11513 2.91525 
1151 4 1 5.66782 0.502705 2.79687 
972 4 1 8.10113 2.80316 1.12222 
1135 4 1 11.035 2.7067 2.46921 
1002 4 1 8.39722 1.70197 2.78762 
1160 4 1 10.6471 1.84092 1.22899 
1082 4 1 9.28817 1.22093 2.41972 
1041 4 1 10.517 0.692048 2.63956 
979 4 1 10.3315 1.72093 2.16062 
1163 4 1 9.45436 0.0160677 2.91054 
1020 4 1 12.4901 3.06382 2.87096 
1032 4 1 14.3583 1.47786 2.29861 
996 4 1 11.4366 1.77811 2.70757 
1158 4 1 11.7098 3.59632 3.48566 
1048 4 1 14.0595 2.58098 2.79451 
966 4 1 14.5813 3.7103 2.20943 
1198 4 1 2.3422 4.86502 1.49199 
1181 4 1 1.46585 4.72958 2.25846 
1150 4 1 1.31733 6.17241 2.4551 
1123 4 1 1.10513 5.3605 2.97156 
1006 4 1 2.28584 3.98742 2.61008 
1194 4 1 0.89435 6.87258 3.61507 
1019 4 1 0.483448 7.1866 2.61851 
1058 4 1 4.57881 4.92059 1.11904 
978 4 1 5.99982 5.7475 2.60159 
1136 4 1 3.79388 4.79758 3.08949 
1186 4 1 5.34973 7.32283 2.37905 
1085 4 1 4.40053 7.07352 1.16329 
1190 4 1 7.27355 6.64576 3.11717 
1033 4 1 8.79875 3.94665 1.3945 
1187 4 1 10.9829 6.36107 1.13633 
959 4 1 7.82506 4.81065 1.28931 
1167 4 1 8.79884 7.25147 3.26154 
1183 4 1 10.2321 4.64766 1.64776 
1022 4 1 9.13472 6.16596 2.07064 
955 4 1 8.30303 3.75262 2.79947 
1169 4 1 9.11378 4.07192 3.6658 
1097 4 1 8.08879 5.60368 3.4373 
1177 4 1 9.81745 5.7549 1.51072 
956 4 1 10.1934 6.43059 2.89008 
1110 4 1 14.8117 4.09688 3.48727 
1084 4 1 12.4169 5.11782 3.18261 
1152 4 1 14.3886 4.71302 1.6564 
1138 4 1 13.0966 4.46272 1.53014 
1155 4 1 13.5266 4.8197 3.481 
1003 4 1 12.5139 7.33875 3.50262 
1137 4 1 13.6315 6.4927 1.02442 
953 4 1 11.3488 6.65176 2.22618 
989 4 1 14.1612 5.75557 3.14151 
1039 4 1 2.43405 0.287211 4.71653 
1087 4 1 2.80925 0.110497 3.70204 
951 4 1 2.70268 2.66041 6.14453 
1061 4 1 3.19064 0.347467 5.53811 
1014 4 1 2.20254 3.12649 6.88847 
990 4 1 0.805799 2.77113 6.11801 
981 4 1 1.78786 3.14451 5.43466 
1112 4 1 0.149188 2.44479 3.95888 
1143 4 1 2.41418 1.81773 3.95107 
1059 4 1 1.46795 0.197545 6.51839 
961 4 1 3.29703 3.42729 6.57585 
1095 4 1 6.55691 1.71056 4.55499 
1063 4 1 7.36329 3.16427 3.84453 
1043 4 1 6.38917 2.84272 4.19209 
1162 4 1 4.49716 3.56186 4.30009 
1009 4 1 7.17616 0.364754 5.90075 
982 4 1 6.50616 0.722722 5.07637 
1179 4 1 8.43609 1.92083 5.85975 
1076 4 1 8.50391 0.427248 4.32326 
1015 4 1 9.82278 0.97913 4.59948 
1191 4 1 10.2414 2.34097 7.12307 
1017 4 1 10.3855 0.211815 5.01994 
970 4 1 14.1734 1.76949 3.74092 
960 4 1 14.9737 1.02775 6.74907 
964 4 1 11.2634 0.848871 5.23609 
1055 4 1 11.6053 1.6788 5.91965 
1121 4 1 11.9711 2.92594 5.83421 
1069 4 1 13.246 1.6024 4.62225 
1156 4 1 13.3756 0.526657 5.2174 
1107 4 1 2.40283 5.8453 4.14183 
1081 4 1 0.269816 5.73527 3.76785 
954 4 1 0.770327 5.24038 6.1107 
1117 4 1 1.99193 4.37294 5.80833 
999 4 1 3.634 6.84443 3.8512 
1168 4 1 3.12138 5.57698 5.23011 
1180 4 1 1.49907 6.44894 6.59467 
1175 4 1 3.94571 5.88391 6.31442 
1196 4 1 5.03411 5.69116 4.89871 
1116 4 1 4.55204 5.92312 3.79534 
975 4 1 5.16457 3.90391 6.76512 
1052 4 1 4.47697 4.96508 4.1013 
1128 4 1 6.66802 4.5224 6.32652 
1090 4 1 6.55194 5.48293 6.74957 
1060 4 1 6.05376 5.95558 4.50759 
1056 4 1 5.30166 6.51734 5.59141 
963 4 1 5.9375 7.13723 4.74687 
1192 4 1 7.37185 5.24537 4.27638 
986 4 1 9.01055 6.75154 4.1561 
1172 4 1 11.053 4.0109 5.52417 
1011 4 1 8.6559 5.24048 5.45882 
984 4 1 8.86147 5.20435 4.23281 
1154 4 1 9.64328 4.36721 5.39446 
991 4 1 14.0394 6.11217 5.67577 
1140 4 1 12.7038 3.81397 3.83356 
1089 4 1 11.3276 5.50502 6.33796 
1122 4 1 13.7061 4.89807 6.53646 
1088 4 1 13.4299 5.31903 5.64334 
998 4 1 3.17262 0.575725 8.33733 
983 4 1 6.61177 3.30186 7.60753 
962 4 1 8.69983 0.319595 8.05182 
1010 4 1 2.18953 7.13048 7.36034 
1185 4 1 6.72244 5.66564 8.26534 
1111 4 1 13.9081 7.17478 9.87621 
965 4 1 14.1469 7.03774 8.24768 
1023 4 1 2.08131 2.69425 11.1794 
1147 4 1 6.87462 2.29282 14.8565 
997 4 1 8.39141 1.77549 20.8326 
1103 4 1 8.7253 3.61071 20.7795 
1104 4 1 11.9981 3.04913 20.4961 
1036 4 1 2.92354 10.9584 1.11776 
1026 4 1 3.09063 10.5687 3.0279 
1047 4 1 1.3135 9.87617 2.24373 
1046 4 1 3.11352 7.5543 1.10681 
1071 4 1 1.12563 7.94167 2.32249 
1024 4 1 1.9592 10.5375 1.67491 
976 4 1 3.11771 7.70021 2.63324 
1139 4 1 1.98398 7.88829 1.76262 
1105 4 1 3.84708 9.9551 3.26536 
1171 4 1 5.8005 10.3177 1.6737 
1119 4 1 7.04397 8.20433 3.48539 
1189 4 1 7.43105 9.03291 1.07225 
1012 4 1 5.99485 10.5562 2.68034 
1013 4 1 4.03915 9.79859 2.2331 
995 4 1 4.91173 9.48164 3.46728 
1145 4 1 7.31027 8.05712 1.23327 
1124 4 1 8.89134 11.1994 2.34005 
1062 4 1 10.233 10.2633 2.11295 
1188 4 1 8.12099 8.05658 3.13835 
1074 4 1 9.98237 9.61983 1.00403 
1072 4 1 10.6493 10.112 3.45286 
1053 4 1 7.68195 7.86727 2.24876 
1079 4 1 9.98201 11.2499 1.34503 
971 4 1 8.35458 9.22903 2.71071 
1038 4 1 9.92339 11.0263 2.91625 
1197 4 1 12.656 8.24785 1.9655 
1174 4 1 13.8321 9.2545 3.41746 
1070 4 1 13.5542 9.19226 1.17616 
1040 4 1 12.6905 10.8015 1.85948 
1159 4 1 14.2672 7.89886 2.9832 
1007 4 1 13.8464 9.51544 2.43195 
1021 4 1 13.3222 8.40887 2.92777 
1016 4 1 2.10387 11.3217 3.60687 
1127 4 1 1.32968 13.0349 1.68998 
1094 4 1 3.61922 13.7572 1.36982 
1005 4 1 0.813903 12.1729 2.48952 
1025 4 1 3.29239 12.7387 2.41015 
1178 4 1 2.10055 12.3011 2.43355 
973 4 1 1.75042 13.9098 2.12744 
1144 4 1 2.52301 13.9509 1.24515 
1083 4 1 4.04545 13.3672 3.42439 
958 4 1 5.51219 14.4523 2.63839 
1118 4 1 6.83912 14.567 1.54393 
1030 4 1 4.46268 14.8082 2.8123 
1141 4 1 7.30825 13.0438 3.6154 
1133 4 1 8.0565 11.7494 3.24988 
1115 4 1 8.8934 13.1874 1.97532 
1157 4 1 7.79608 12.676 1.6127 
1102 4 1 10.5786 13.7938 1.17473 
1193 4 1 11.1617 14.3979 2.32413 
1182 4 1 9.53518 13.9757 3.56901 
1114 4 1 13.8437 13.5399 1.2491 
1018 4 1 14.1975 12.6391 3.08942 
987 4 1 12.1422 13.7092 1.2391 
1044 4 1 12.2476 12.2835 2.98362 
974 4 1 11.5744 13.273 2.05591 
1008 4 1 13.2362 11.7958 2.34202 
1051 4 1 3.1432 9.91251 4.05354 
1176 4 1 2.85366 8.51859 4.81278 
1099 4 1 3.43538 10.9977 4.68525 
993 4 1 0.609554 9.29099 4.1444 
1028 4 1 1.51986 10.2489 5.54005 
1086 4 1 2.35815 8.68989 6.58611 
1142 4 1 1.67019 10.4923 6.59832 
1173 4 1 4.06216 9.51344 4.34395 
1200 4 1 5.04332 7.62486 5.19368 
1148 4 1 4.62469 9.82329 5.15938 
1096 4 1 6.16501 10.9317 5.28847 
1078 4 1 4.98478 8.86771 5.81079 
1035 4 1 6.76427 10.957 6.4047 
1066 4 1 5.39846 7.95936 6.77462 
1091 4 1 9.58491 9.18866 5.64908 
1170 4 1 9.54898 9.3105 3.71386 
1054 4 1 9.30182 8.08807 5.41481 
1067 4 1 11.1326 11.0377 6.04261 
1042 4 1 7.88376 7.51836 6.6139 
1001 4 1 10.4299 9.94064 6.35621 
1134 4 1 7.51128 10.3681 4.41266 
1113 4 1 7.72692 10.7587 5.75462 
1130 4 1 14.9798 10.4197 5.02305 
988 4 1 14.9655 7.78599 5.68095 
985 4 1 12.1296 11.1529 4.45128 
1092 4 1 3.60571 13.2112 6.41459 
1195 4 1 0.50195 14.5828 6.86191 
1109 4 1 0.702152 14.6753 4.11714 
1050 4 1 1.64736 12.1926 6.95221 
952 4 1 0.386277 11.3691 5.53037 
1098 4 1 0.754114 11.4228 4.41082 
1077 4 1 1.99793 12.4068 4.71486 
1057 4 1 7.36423 14.9166 4.0821 
1125 4 1 5.04797 13.6326 3.72279 
1106 4 1 6.9317 11.6133 4.83564 
1161 4 1 7.25484 14.4748 5.32675 
1027 4 1 4.686 13.2425 5.57676 
1034 4 1 6.56834 12.7446 6.77898 
1068 4 1 4.39871 13.2173 4.36361 
1031 4 1 4.57238 14.0287 6.17747 
1132 4 1 5.98868 13.5282 6.08445 
1029 4 1 5.81173 11.9928 5.0895 
1199 4 1 9.32361 13.3344 5.71338 
1100 4 1 9.65728 14.072 4.64061 
1004 4 1 11.2124 14.671 5.15903 
1000 4 1 8.41146 12.2002 5.26832 
1065 4 1 13.6815 13.7028 5.86339 
1165 4 1 11.4716 12.1464 4.2679 
1037 4 1 13.9666 12.4254 4.2604 
1166 4 1 13.8617 11.4773 5.73112 
1149 4 1 12.4511 12.6028 5.80403 
994 4 1 12.0447 13.0495 4.70367 
1126 4 1 0.853347 9.69962 7.4501 
1045 4 1 3.75248 7.55416 7.35643 
1064 4 1 8.2899 14.5555 9.81446 
1184 4 1 13.798 14.913 7.75303 
969 4 1 10.0478 10.5687 12.9762 
967 4 1 1.73524 14.0316 13.533 
1075 4 1 3.04733 8.64074 15.6831 
1049 4 1 0.306041 9.06237 14.8815 
1108 4 1 13.1004 10.3825 16.0082 
1131 4 1 11.2147 13.4494 16.5718 
ITEM: TIMESTEP
13000
ITEM: NUMBER OF ATOMS
250
ITEM: BOX BOUNDS pp pp ff
0 15
0 15
0 22
ITEM: ATOMS id type q x y z 
1164 4 1 0.54869 0.159728 1.87006 
1153 4 1 1.49922 0.258525 3.39694 
958 4 1 6.79327 0.239863 3.42889 
1101 4 1 1.71718 2.30755 1.84457 
968 4 1 1.09002 4.50986 1.88228 
977 4 1 3.9761 1.13572 1.90817 
1080 4 1 14.0494 1.48316 1.27265 
1200 4 1 5.46872 4.82969 4.05237 
992 4 1 7.91125 1.61796 1.50333 
1073 4 1 5.55198 1.63621 4.15276 
957 4 1 5.1675 1.83926 2.44523 
1129 4 1 7.47095 3.00196 2.28815 
1120 4 1 7.58996 1.97676 2.73507 
1190 4 1 7.77858 7.18826 2.93675 
972 4 1 10.0254 1.48242 1.26571 
1135 4 1 10.914 1.9073 1.03466 
1002 4 1 8.83395 2.80321 3.66067 
1167 4 1 9.55632 6.66436 2.99021 
979 4 1 11.2102 0.882835 2.01382 
1047 4 1 2.27018 6.52614 3.04232 
1175 4 1 4.34672 4.31237 10.7262 
971 4 1 7.72801 6.24527 3.96414 
1020 4 1 11.4659 4.18807 6.25258 
1032 4 1 0.338451 1.55006 1.24705 
1061 4 1 2.83807 0.0725192 5.43926 
996 4 1 11.6917 2.51594 2.66944 
1158 4 1 12.8257 3.35518 2.52514 
988 4 1 14.0223 6.686 6.13123 
1048 4 1 14.1734 2.22782 3.65826 
966 4 1 13.8734 3.83784 2.63589 
1198 4 1 13.7633 6.36414 1.16795 
1181 4 1 0.66807 1.12259 3.07493 
962 4 1 8.91316 0.359878 5.82986 
1150 4 1 1.27025 6.14591 2.19049 
1123 4 1 2.0379 5.49932 4.00381 
983 4 1 7.30651 5.5356 6.14264 
1006 4 1 2.14614 4.26048 2.23807 
1195 4 1 14.3715 0.253279 6.49918 
1024 4 1 0.515728 6.97481 2.40548 
1058 4 1 4.18729 2.5951 1.1588 
978 4 1 6.2823 4.4967 5.03139 
1136 4 1 2.58373 3.50067 3.10111 
1033 4 1 7.1797 2.4409 1.24461 
959 4 1 4.79583 4.30582 1.06639 
1183 4 1 11.0323 3.89929 1.49972 
1022 4 1 9.24873 6.05357 1.90429 
955 4 1 7.98701 3.93765 4.2225 
1169 4 1 12.0867 3.5797 3.15634 
1097 4 1 8.09497 5.15706 3.492 
1177 4 1 9.78053 6.50633 1.06976 
956 4 1 11.0923 5.69537 3.44026 
1085 4 1 4.20155 6.63253 1.72368 
963 4 1 6.14714 6.15785 2.07476 
1110 4 1 13.0558 2.02163 1.78055 
1084 4 1 13.3347 4.98282 2.46306 
1152 4 1 14.5444 5.26362 2.04122 
1138 4 1 9.84295 3.81267 2.64454 
1155 4 1 14.0844 5.70338 3.11079 
1145 4 1 2.84901 7.19493 1.25348 
1010 4 1 0.0825394 3.46796 6.83806 
989 4 1 10.5059 5.75581 2.23807 
951 4 1 6.77429 6.78842 7.39573 
1023 4 1 6.08069 2.99378 7.79816 
1014 4 1 4.50299 0.862055 4.60718 
990 4 1 0.386714 3.94335 4.55016 
998 4 1 3.37844 5.81293 8.10769 
981 4 1 1.62512 2.80932 4.75689 
1112 4 1 14.7605 2.85278 4.17157 
1132 4 1 9.29907 7.42542 5.84741 
1143 4 1 2.99448 0.902005 3.02973 
961 4 1 5.12063 1.82244 5.1823 
1095 4 1 8.3198 1.04414 4.74504 
1043 4 1 8.27236 3.26555 2.94747 
1162 4 1 5.60917 2.45319 5.90345 
1046 4 1 4.29517 5.39613 1.16759 
1009 4 1 11.2015 1.01683 7.16892 
982 4 1 6.72541 0.568763 5.62314 
1191 4 1 10.6556 6.89208 9.27063 
1186 4 1 7.04495 6.78626 2.24029 
965 4 1 14.6985 6.09935 7.75934 
1148 4 1 5.44254 5.05983 5.38858 
1137 4 1 11.1092 6.57858 2.38533 
1179 4 1 11.6643 1.68655 5.32072 
1030 4 1 3.58662 0.874547 5.32273 
1019 4 1 1.00097 7.40198 6.26982 
1057 4 1 11.5726 1.08769 6.24006 
970 4 1 0.893303 1.54008 4.19834 
1088 4 1 13.8363 5.48996 5.69527 
1055 4 1 12.8563 2.4708 5.17027 
1121 4 1 13.4052 4.25204 9.92541 
1069 4 1 12.1604 3.18944 5.36576 
1107 4 1 1.64767 7.07743 5.48907 
1081 4 1 0.611356 5.3605 3.52146 
954 4 1 14.8601 3.0535 5.87927 
1117 4 1 1.60914 2.87838 5.79882 
999 4 1 3.47118 6.68313 3.15107 
1168 4 1 2.46751 7.1372 6.43853 
1180 4 1 14.2642 2.43339 6.55511 
1196 4 1 4.06684 4.05489 2.62504 
1116 4 1 3.90819 2.79482 3.13794 
1052 4 1 4.34969 6.2312 2.72546 
1128 4 1 4.70348 4.30636 5.26003 
1090 4 1 7.11871 3.58881 4.70738 
1060 4 1 6.44002 5.56093 5.43601 
1056 4 1 5.13413 5.79823 4.46815 
1054 4 1 6.4371 4.52004 6.64318 
1192 4 1 6.21208 5.11928 2.88364 
986 4 1 9.32956 4.92786 4.63389 
1035 4 1 11.4579 3.95823 7.40651 
1172 4 1 10.4301 4.35328 6.79885 
1011 4 1 8.93631 4.20692 3.8555 
1075 4 1 10.6601 6.85794 6.06416 
984 4 1 10.9158 3.34565 2.9752 
1154 4 1 8.25708 2.49061 4.63026 
991 4 1 13.601 6.45404 3.7025 
1140 4 1 12.1463 4.69643 3.2562 
1089 4 1 10.6427 4.54479 4.38717 
1122 4 1 12.7935 4.96929 4.5394 
1087 4 1 3.78761 0.374253 2.64309 
1045 4 1 14.0914 7.3876 5.26169 
1082 4 1 10.3364 0.367773 1.4593 
1064 4 1 4.79718 0.168712 6.14116 
1197 4 1 12.9709 7.46703 2.30066 
1131 4 1 8.33309 3.0096 13.3546 
1049 4 1 11.3472 3.99683 20.4929 
969 4 1 0.773578 2.63728 16.5519 
1036 4 1 3.29676 9.88565 2.88254 
1026 4 1 4.40998 11.6389 1.63602 
1071 4 1 13.8412 8.73198 2.47135 
1003 4 1 14.4934 8.47449 5.12253 
1105 4 1 3.70715 10.8369 1.35645 
1171 4 1 8.38442 9.64269 1.62597 
1119 4 1 5.25216 9.5516 3.49345 
1189 4 1 8.86402 7.59134 2.94803 
1012 4 1 7.80076 8.46519 3.11904 
1013 4 1 5.46191 10.5274 2.16616 
995 4 1 7.48407 9.89723 2.16313 
1124 4 1 10.0874 11.0205 3.10395 
1062 4 1 10.0739 12.1597 2.22834 
1188 4 1 5.60464 10.6496 1.073 
1074 4 1 10.5196 11.2065 0.98731 
1072 4 1 8.92369 10.6153 1.30674 
1141 4 1 7.63325 14.9186 1.3621 
1079 4 1 10.9521 12.6931 1.56969 
1038 4 1 12.2484 12.9534 3.49829 
1156 4 1 5.34026 8.21795 6.53353 
1174 4 1 14.2534 10.2387 4.00663 
1070 4 1 14.056 10.053 1.04743 
1040 4 1 12.1842 10.0498 1.29993 
1159 4 1 0.505073 8.19071 2.83162 
1007 4 1 13.348 9.86575 2.07239 
1021 4 1 14.2883 12.4626 3.04747 
1016 4 1 0.999308 10.0181 1.73325 
1127 4 1 2.9963 13.7709 1.50202 
1094 4 1 2.03458 12.867 1.54169 
1005 4 1 1.5707 12.299 3.64425 
1025 4 1 3.21279 12.529 3.3159 
1111 4 1 14.7472 10.0227 7.50165 
976 4 1 2.40602 8.1122 1.17803 
1178 4 1 1.35363 11.5971 2.88104 
973 4 1 0.942375 12.1265 1.40692 
975 4 1 2.60879 8.48576 7.13781 
1083 4 1 4.2503 14.5396 3.33986 
1118 4 1 6.78497 13.8398 2.20468 
1004 4 1 11.5692 13.6334 6.99044 
1066 4 1 5.94339 9.26943 4.66293 
1133 4 1 6.21886 10.8903 3.26865 
1115 4 1 7.78333 12.8336 2.1641 
1157 4 1 6.80329 11.7279 2.81158 
1102 4 1 11.3531 13.7036 1.37844 
1193 4 1 12.6901 13.2245 2.3895 
1182 4 1 9.64322 13.1897 2.44592 
1053 4 1 8.29723 9.5196 2.67202 
1151 4 1 5.14424 14.9245 2.2431 
1114 4 1 3.36212 12.937 1.29392 
1018 4 1 13.8684 12.0441 4.49885 
987 4 1 8.28121 12.456 4.13018 
1185 4 1 5.39189 7.89007 4.6101 
1044 4 1 12.0054 14.7556 3.33805 
974 4 1 13.2079 12.8797 1.29088 
1008 4 1 13.8381 11.2268 2.11026 
1051 4 1 2.61939 10.5514 3.47968 
1176 4 1 4.3965 10.2036 3.17352 
1099 4 1 1.40696 9.81892 3.19679 
993 4 1 0.69687 8.81018 4.75418 
1139 4 1 1.19162 8.52787 1.14845 
1028 4 1 3.19972 9.91762 3.9662 
1086 4 1 3.83045 12.1329 7.9203 
1142 4 1 3.64344 8.58367 6.31383 
953 4 1 11.8992 8.53881 3.61358 
1093 4 1 5.63214 14.4771 3.35707 
1184 4 1 14.074 14.264 6.83205 
1173 4 1 4.80311 8.49236 1.73652 
1109 4 1 0.431853 14.9563 4.05415 
1144 4 1 2.12192 14.5512 1.55308 
1096 4 1 6.00671 10.3526 4.89592 
1039 4 1 3.15658 14.1213 3.66485 
1078 4 1 7.07496 7.79303 3.30571 
960 4 1 3.36734 13.4215 2.81246 
1091 4 1 11.5349 9.3665 6.09296 
1170 4 1 10.8055 8.95774 2.72423 
1067 4 1 11.8242 11.4847 5.99338 
1076 4 1 9.31164 13.6375 4.95429 
1001 4 1 14.1547 10.8771 7.39562 
1134 4 1 8.94243 10.1797 4.96941 
1113 4 1 10.2149 9.86861 5.31669 
1130 4 1 1.62591 8.70202 5.11237 
1017 4 1 9.08224 14.2587 8.25202 
1015 4 1 10.0106 14.2244 2.78549 
985 4 1 0.301624 12.7261 4.74944 
1092 4 1 5.49309 11.5303 6.50355 
964 4 1 13.4508 11.8806 5.94009 
1050 4 1 3.37978 10.2253 6.23089 
952 4 1 1.84667 10.054 4.62415 
1098 4 1 3.07065 12.7306 5.26324 
1077 4 1 2.54464 13.2975 3.4422 
1125 4 1 6.04787 12.7327 6.09999 
1106 4 1 13.7341 12.5988 6.8879 
1187 4 1 11.1035 8.44765 1.15331 
1027 4 1 1.79215 10.013 8.0161 
1163 4 1 8.52194 14.4116 3.61925 
1034 4 1 9.1332 12.4495 6.38552 
1068 4 1 4.77486 11.585 3.99405 
1031 4 1 4.16523 12.6519 4.93759 
1104 4 1 13.2988 8.28459 6.65898 
1146 4 1 1.01693 14.1953 3.54007 
1126 4 1 0.622941 12.852 6.4601 
1029 4 1 7.56995 9.88753 6.16076 
1041 4 1 10.5098 14.6059 3.65964 
1199 4 1 7.94786 12.5538 7.40072 
1100 4 1 11.9358 13.5747 4.96204 
1108 4 1 6.97753 13.6669 6.12857 
1000 4 1 11.4061 12.5041 6.92094 
1065 4 1 1.24829 13.6273 5.73279 
1165 4 1 9.27413 11.8995 3.04944 
1037 4 1 12.8531 13.4694 4.30127 
1166 4 1 14.4844 11.3093 5.13694 
994 4 1 13.2505 11.6907 3.33244 
980 4 1 7.51176 13.8179 1.49043 
1059 4 1 1.08358 11.8139 6.59813 
1147 4 1 1.52386 10.2533 10.0269 
1161 4 1 9.89045 14.47 5.42593 
1149 4 1 3.50834 7.56848 6.77586 
1160 4 1 8.98802 13.8002 1.13956 
1063 4 1 7.87996 8.49154 6.46316 
1194 4 1 2.16218 8.15367 5.95433 
1042 4 1 9.17302 8.96034 6.75556 
997 4 1 8.26513 9.56664 20.8835 
967 4 1 9.71559 14.8502 16.8967 
1103 4 1 8.73207 8.67491 20.8917 
ITEM: TIMESTEP
14000
ITEM: NUMBER OF ATOMS
250
ITEM: BOX BOUNDS pp pp ff
0 15
0 15
0 22
ITEM: ATOMS id type q x y z 
1101 4 1 1.96119 2.061 1.98262 
1109 4 1 1.60478 0.733568 2.97819 
1136 4 1 2.35578 1.55529 2.92003 
1143 4 1 1.19041 3.3713 1.95789 
1087 4 1 2.69555 2.35411 1.13576 
1080 4 1 0.33705 0.846963 1.75755 
968 4 1 0.374754 3.10718 2.45931 
961 4 1 3.30809 1.00951 3.18847 
977 4 1 4.47477 0.530151 2.03483 
957 4 1 4.59695 1.45202 1.06249 
1058 4 1 4.6342 2.51126 2.15923 
1046 4 1 5.78782 3.33759 1.89747 
982 4 1 5.40525 2.11842 3.55555 
1141 4 1 7.09659 0.156261 2.44026 
1033 4 1 8.6058 0.915665 1.1539 
1120 4 1 8.15179 2.5476 1.21785 
972 4 1 11.1882 2.61269 2.41621 
1135 4 1 11.2456 1.77696 1.77915 
1043 4 1 7.80082 3.62234 1.87908 
1140 4 1 10.37 3.34792 2.55378 
1095 4 1 8.38593 1.69067 3.54721 
1154 4 1 8.42663 1.66465 1.98364 
979 4 1 10.0641 1.15338 1.05098 
1160 4 1 9.50698 0.715278 2.40767 
1032 4 1 14.001 0.90071 3.25788 
984 4 1 11.815 0.590685 2.97073 
996 4 1 11.4874 2.7443 3.47949 
1110 4 1 13.1933 0.63589 1.48985 
1112 4 1 13.5577 3.52183 3.37052 
1047 4 1 0.422119 4.84664 3.44826 
1006 4 1 2.7581 4.93179 2.36938 
1081 4 1 1.74874 6.2766 1.15087 
999 4 1 3.73039 4.67624 3.40224 
959 4 1 2.90343 4.47816 1.4377 
976 4 1 2.47648 7.32882 1.04306 
966 4 1 0.224786 5.82179 2.82424 
1150 4 1 0.322157 6.55693 1.91096 
1024 4 1 1.77157 4.45471 2.09354 
1085 4 1 5.53766 7.04208 2.30968 
1116 4 1 6.12527 4.39744 3.44433 
963 4 1 7.2602 7.04241 2.11692 
1052 4 1 5.01853 4.67557 2.78016 
1192 4 1 5.58857 5.5065 3.04119 
1145 4 1 4.86804 6.73323 1.5035 
1169 4 1 10.4616 4.09136 1.11945 
1167 4 1 8.1833 6.71976 0.991376 
1022 4 1 10.1145 4.74346 2.35662 
953 4 1 10.7974 6.72431 1.05455 
1097 4 1 8.60978 6.38128 3.40309 
1177 4 1 9.77145 6.65689 1.19535 
989 4 1 10.3656 6.18361 2.08548 
1189 4 1 8.21602 7.36347 2.46411 
1002 4 1 8.46847 4.22233 2.67602 
971 4 1 10.2818 5.67429 3.0533 
1137 4 1 12.1406 6.8968 1.01979 
1158 4 1 13.5935 3.95596 1.38703 
1183 4 1 14.9952 4.12611 2.73118 
956 4 1 11.3725 5.09185 2.64515 
1198 4 1 14.448 4.70289 1.9247 
1069 4 1 12.6568 4.01066 3.52421 
1197 4 1 13.56 5.45002 2.44677 
1164 4 1 0.157088 2.11946 4.81989 
1191 4 1 0.793238 2.81396 6.28571 
1117 4 1 1.87622 1.88347 6.30774 
1048 4 1 0.976564 0.718574 3.95209 
1199 4 1 2.95039 0.813079 4.65017 
990 4 1 1.55333 2.6068 4.32035 
1128 4 1 2.88191 2.34749 5.80014 
1054 4 1 3.56511 3.57753 4.07645 
1073 4 1 6.73256 2.28181 3.75082 
998 4 1 4.56807 2.09073 5.19128 
1064 4 1 5.28092 1.47293 5.39652 
1034 4 1 9.48002 0.0895543 4.88657 
1004 4 1 10.6557 1.28109 4.60464 
1138 4 1 9.19166 2.61976 5.11334 
1017 4 1 10.781 2.57881 5.90164 
1057 4 1 10.0339 0.565958 6.09764 
1179 4 1 9.89693 2.99833 3.79955 
1153 4 1 14.8081 0.118843 5.27063 
1184 4 1 13.3575 0.594648 6.43271 
1044 4 1 12.6691 0.61408 3.82549 
1018 4 1 14.533 0.0930027 7.17888 
1010 4 1 14.8491 2.12255 7.29841 
1055 4 1 13.0904 1.58839 6.63266 
954 4 1 14.0438 1.83978 4.54941 
1180 4 1 13.6861 0.500838 5.34492 
1172 4 1 11.683 3.32697 6.49466 
1149 4 1 2.58611 6.11388 7.08947 
1019 4 1 0.652229 5.41598 6.55898 
1152 4 1 0.778647 6.00425 4.11755 
988 4 1 0.229713 7.01771 5.48526 
1194 4 1 2.58673 7.09922 5.0176 
1123 4 1 2.63198 5.61716 4.40364 
1107 4 1 2.94271 4.36432 3.93277 
1148 4 1 1.93318 4.1192 5.57404 
1060 4 1 3.70859 6.93544 3.95671 
975 4 1 4.34097 4.48946 5.06118 
1129 4 1 5.07457 4.122 4.10662 
1063 4 1 7.15156 7.41098 7.11145 
951 4 1 7.24975 3.96286 5.84904 
1023 4 1 6.02756 5.44115 5.58535 
965 4 1 4.19502 6.59336 6.87983 
1196 4 1 4.20301 5.67532 4.82638 
1027 4 1 5.1945 6.93262 6.4232 
1200 4 1 7.16408 5.41548 5.25413 
978 4 1 4.80763 5.41484 6.18666 
1056 4 1 4.66624 6.66717 4.24638 
1131 4 1 4.1571 7.48136 6.14245 
1162 4 1 8.32464 4.92997 5.80508 
1122 4 1 9.90421 6.03612 5.48981 
986 4 1 7.90469 5.68686 3.87129 
1011 4 1 9.03256 5.22609 4.95038 
1089 4 1 9.57765 4.34451 4.97575 
1104 4 1 9.11095 7.47817 5.81021 
1075 4 1 7.77125 7.17177 6.22554 
1084 4 1 13.4082 5.15706 4.11376 
1155 4 1 14.1403 4.44826 3.75584 
1045 4 1 13.8681 5.91979 4.65698 
1009 4 1 11.5443 4.71384 6.68607 
955 4 1 12.5488 4.8249 5.18901 
1159 4 1 13.5354 6.99196 4.15878 
1059 4 1 0.787193 0.864719 8.0843 
1168 4 1 1.80516 3.03975 7.65595 
1088 4 1 2.15511 4.1499 10.02 
1020 4 1 6.39701 3.38483 11.366 
967 4 1 8.89167 6.92503 11.1366 
997 4 1 9.86392 0.568805 20.8768 
1036 4 1 1.14875 9.55977 1.32675 