ITEM: TIMESTEP
1100
ITEM: NUMBER OF ATOMS
3794
ITEM: BOX BOUNDS pp pp ff
0 15
0 15
0 62
ITEM: ATOMS id type x y z 
1 1 0 0 0 
2 1 0 1.5 0 
3 1 0 3 0 
11 1 1.5 0 0 
12 1 1.5 1.5 0 
13 1 1.5 3 0 
21 1 3 0 0 
22 1 3 1.5 0 
23 1 3 3 0 
261 2 14.9959 3.32144 0.986708 
263 2 0.127875 3.47933 1.88292 
265 2 0.0123213 3.69422 2.80486 
561 2 2.95463 3.25016 0.999545 
563 2 2.26045 3.48709 1.66549 
566 2 3.00277 3.48746 2.34406 
3620 6 1.29556 2.9924 1.08474 
1852 3 3.98196 0.598899 1.98252 
31 1 4.5 0 0 
32 1 4.5 1.5 0 
33 1 4.5 3 0 
41 1 6 0 0 
42 1 6 1.5 0 
43 1 6 3 0 
804 2 5.22505 0.288867 2.10074 
861 2 5.7343 3.00176 0.941725 
863 2 5.18256 3.30687 1.66836 
865 2 4.82586 3.13339 2.58909 
866 2 5.60642 3.31139 3.0967 
1883 3 3.86762 3.6025 2.74505 
2002 3 5.11112 0.826615 2.90212 
2031 3 7.02641 3.78536 1.29791 
2951 4 4.03547 0.380117 3.4186 
3430 6 6.13602 3.4856 2.12737 
867 2 4.55864 3.37015 3.49958 
2004 3 4.98211 0.110967 3.76532 
51 1 7.5 0 0 
52 1 7.5 1.5 0 
53 1 7.5 3 0 
61 1 9 0 0 
62 1 9 1.5 0 
63 1 9 3 0 
71 1 10.5 0 0 
72 1 10.5 1.5 0 
73 1 10.5 3 0 
1101 2 9.15322 0.345511 0.963321 
1102 2 10.0808 0.36795 1.00426 
1103 2 9.59877 0.477203 1.84078 
1104 2 9.21671 1.33432 1.7092 
1105 2 9.75498 1.03429 2.65993 
1106 2 10.5312 1.53826 2.49568 
1161 2 8.99622 2.99822 1.04214 
1162 2 9.54403 2.25703 1.02452 
1163 2 9.28056 3.28408 1.95235 
1164 2 8.42971 3.7324 2.11496 
1165 2 9.49573 2.92811 2.79581 
1166 2 10.349 2.77142 2.5065 
2151 3 10.9601 0.778538 1.11 
2152 3 9.4798 2.1652 2.13757 
2181 3 10.2876 2.75433 1.33748 
2183 3 11.2516 2.7223 2.84268 
3066 4 10.592 3.67266 1.80442 
3198 4 11.1914 2.39264 1.87705 
3270 5 10.2947 1.56718 1.34044 
2302 3 11.2595 1.85081 1.02066 
3500 6 10.7682 0.99122 3.52204 
1107 2 9.76921 1.55664 3.53815 
1108 2 10.4632 2.19816 3.39763 
1167 2 9.7322 2.95752 3.7502 
3169 4 10.6232 3.49213 3.37267 
203 2 14.4577 0.480191 1.78625 
205 2 14.2219 0.920767 2.6006 
206 2 13.627 0.121931 2.74693 
1702 3 14.6962 0.181962 3.35478 
2153 3 11.3393 1.65087 2.94982 
81 1 12 0 0 
82 1 12 1.5 0 
83 1 12 3 0 
91 1 13.5 0 0 
92 1 13.5 1.5 0 
93 1 13.5 3 0 
1401 2 11.856 0.171746 1.00285 
1402 2 12.1665 1.14037 0.999516 
1403 2 11.8482 0.495187 1.92528 
1404 2 11.4115 1.34596 1.84331 
1405 2 12.074 0.861461 2.78462 
1406 2 13.0142 1.05966 2.98676 
1461 2 12.0229 2.9004 0.992234 
1462 2 12.1754 2.08934 1.45566 
1463 2 11.7779 3.24187 1.87124 
1465 2 12.2921 3.0992 2.70386 
1466 2 13.0794 3.59459 2.48122 
2301 3 12.7276 1.16141 1.84575 
2303 3 12.9078 0.669758 3.89067 
2331 3 12.7876 2.7397 1.88502 
207 2 13.9279 1.03557 3.50708 
208 2 14.8831 1.32018 3.65343 
1407 2 12.0975 1.24972 3.68903 
1408 2 12.8109 1.87756 3.71457 
1467 2 12.5936 3.08413 3.64297 
3758 7 12.2256 2.01945 2.5471 
3336 5 13.6782 14.8914 3.96117 
2185 3 11.5679 3.44167 3.87943 
2472 4 11.5689 2.31072 3.7487 
562 2 3.38419 4.07631 1.27738 
262 2 0.551166 4.11023 1.05538 
264 2 1.09672 3.87743 1.87789 
266 2 0.930792 3.95108 2.94473 
564 2 2.30159 4.46792 1.70114 
565 2 2.09859 3.58844 2.59894 
1731 3 1.45684 4.3779 1.07059 
1733 3 1.4262 4.75896 3.14044 
3473 6 1.97895 5.28676 1.17443 
4 1 0 4.5 0 
5 1 0 6 0 
14 1 1.5 4.5 0 
15 1 1.5 6 0 
24 1 3 4.5 0 
25 1 3 6 0 
321 2 14.9877 5.98127 0.981058 
322 2 0.941967 6.15078 1.0365 
324 2 14.9924 6.22416 2.13801 
326 2 0.729149 5.5735 2.54314 
621 2 2.92563 5.77077 1.03235 
622 2 2.88017 6.73048 1.13397 
623 2 2.82972 5.63444 1.9967 
624 2 2.32988 6.49513 2.03523 
625 2 2.27355 5.74396 2.81043 
626 2 3.24869 5.57429 2.94844 
1732 3 0.467369 4.57686 2.19034 
1761 3 1.84934 6.39176 1.02474 
1762 3 0.634664 6.76989 2.55993 
1763 3 1.42384 5.86329 1.90132 
1882 3 2.30513 4.67954 2.64021 
1912 3 3.08526 6.50985 2.62507 
2564 4 1.46668 4.85789 2.02849 
3137 4 0.738786 5.12037 1.11124 
1911 3 3.08578 7.36402 1.80487 
1913 3 3.44685 5.18245 3.78101 
2954 4 3.449 4.64926 2.27047 
2581 4 1.75338 6.55649 2.96745 
3274 5 2.37321 7.48314 2.70909 
267 2 0.0198796 3.81023 3.73244 
567 2 2.01338 3.99645 3.44715 
568 2 2.35451 4.91365 3.64025 
328 2 0.149282 6.45403 3.55835 
627 2 2.03042 5.87941 3.74234 
628 2 2.94606 6.13001 3.90593 
1914 3 2.62856 7.06453 3.69675 
2958 4 0.985354 5.77082 3.59087 
3033 4 0.479331 4.81797 3.5065 
3141 4 3.06661 4.17428 3.26201 
1881 3 3.55563 5.04651 1.14841 
862 2 6.02818 3.87295 1.14393 
864 2 5.35159 4.18019 2.03448 
2033 3 6.04487 4.16257 3.02112 
2633 4 4.36173 4.00079 1.53446 
3495 6 4.63103 4.24418 2.71162 
34 1 4.5 4.5 0 
35 1 4.5 6 0 
44 1 6 4.5 0 
45 1 6 6 0 
921 2 5.9907 5.91406 0.987986 
922 2 6.73319 6.43203 1.17799 
923 2 5.43382 6.1004 1.77749 
924 2 6.12833 6.50744 2.23573 
925 2 4.89796 6.135 2.63649 
926 2 5.76171 5.9352 3.03337 
2032 3 4.98015 5.07703 2.09622 
2061 3 6.85251 5.48597 1.52617 
2062 3 6.00197 7.14052 1.47485 
2063 3 6.68945 5.99692 2.9966 
2565 4 5.98138 5.17045 2.30663 
2861 4 4.12966 5.24209 2.71047 
3860 8 5.68198 4.92372 1.29863 
3051 4 6.89399 4.93106 2.90724 
3255 5 6.62554 4.52749 1.90639 
3524 6 6.19154 5.11108 3.60111 
868 2 4.04509 4.15009 3.61016 
927 2 4.41128 6.03875 3.52566 
3317 5 5.25034 4.96772 3.14959 
2561 4 7.39712 6.18775 2.2431 
928 2 5.16577 6.49496 3.91934 
54 1 7.5 4.5 0 
55 1 7.5 6 0 
64 1 9 4.5 0 
65 1 9 6 0 
74 1 10.5 4.5 0 
75 1 10.5 6 0 
1221 2 9.17714 6.14293 1.02995 
1222 2 10.0006 6.55319 1.175 
1223 2 9.33531 6.35731 2.03934 
1224 2 9.8651 7.15917 2.06773 
1225 2 9.77793 6.29414 2.94763 
1226 2 10.6871 6.44877 2.72012 
2182 3 7.47981 3.72663 2.31412 
2211 3 10.4321 7.40405 1.05895 
2213 3 10.6918 5.96899 1.85775 
2332 3 11.0737 4.76684 2.519 
3609 6 11.0346 7.25337 2.0046 
3850 8 9.66158 7.28329 3.19799 
1168 2 9.5894 3.89913 3.65882 
1227 2 10.3041 6.32107 3.75903 
1228 2 10.7406 7.16275 3.62623 
3312 5 11.301 6.64639 1.12434 
1464 2 11.5374 4.19579 1.79943 
2333 3 13.5347 4.07591 3.10988 
2629 4 12.5139 3.79652 1.30521 
3829 8 13.3882 4.38293 1.80362 
323 2 14.8072 5.39227 1.71808 
325 2 14.8657 5.30508 2.70006 
3756 6 11.5679 6.36667 3.35498 
84 1 12 4.5 0 
85 1 12 6 0 
94 1 13.5 4.5 0 
95 1 13.5 6 0 
1521 2 12.166 5.90277 0.974647 
1522 2 12.3204 6.82034 1.03594 
1523 2 11.6957 5.50602 1.746 
1524 2 11.6859 6.37737 2.16964 
1525 2 11.8951 5.44393 2.7306 
1526 2 12.647 5.63317 2.15492 
2361 3 13.0375 6.6975 1.67409 
2362 3 12.5348 6.53977 2.63 
2363 3 13.5503 6.00106 2.12089 
2938 4 14.3978 4.3631 2.11785 
3386 6 12.3932 4.85636 1.44226 
268 2 14.4554 4.49397 3.27946 
1468 2 12.4221 3.97851 3.38115 
327 2 14.7929 5.56789 3.66896 
3188 4 11.491 3.85495 2.77259 
1527 2 12.1845 5.61011 3.63582 
2334 3 11.6876 4.56328 3.5036 
2674 4 12.8535 5.08336 3.00224 
3031 4 12.3581 4.41867 2.44057 
3171 4 13.7935 5.16258 2.58825 
3209 5 13.5027 7.13641 2.66179 
3398 6 14.3039 6.36211 2.89879 
3548 6 13.2958 6.03451 3.14917 
1586 2 11.7536 7.20588 2.88844 
2780 4 12.3468 7.4216 1.95274 
1528 2 12.5429 6.47904 3.7092 
2365 3 13.7479 5.24707 3.62771 
3278 5 14.0411 6.34666 3.8732 
6 1 0 7.5 0 
7 1 0 9 0 
8 1 0 10.5 0 
16 1 1.5 7.5 0 
17 1 1.5 9 0 
18 1 1.5 10.5 0 
26 1 3 7.5 0 
27 1 3 9 0 
28 1 3 10.5 0 
381 2 0.212896 9.40948 0.96544 
382 2 1.02838 9.94319 0.995306 
383 2 0.493978 9.0961 1.82007 
384 2 0.27915 10.0135 1.84913 
385 2 0.775086 9.11183 2.78214 
386 2 0.972612 10.012 2.98866 
681 2 3.09536 9.19369 1.01758 
682 2 3.17957 10.1511 1.05278 
683 2 2.69831 9.44577 1.85409 
684 2 2.41721 10.3845 1.92738 
685 2 2.92599 9.64328 2.77979 
686 2 2.4583 10.5277 2.93536 
1791 3 1.61014 10.6769 1.22792 
1792 3 0.175543 10.6999 2.53106 
1793 3 1.81024 9.52024 2.94382 
3281 5 0.482077 10.8165 1.02656 
3338 5 2.16789 9.76672 1.01601 
3612 6 1.61385 9.61887 1.84977 
1941 3 2.9683 11.024 1.33722 
1943 3 3.28981 10.368 3.4242 
2584 4 3.18465 10.9886 2.40014 
387 2 0.49997 9.38158 3.65704 
687 2 2.67352 9.39403 3.62384 
1944 3 1.54649 10.5958 3.60277 
3323 5 1.5221 10.5926 2.4282 
3050 4 3.64978 9.9855 2.02189 
1942 3 2.23986 11.2955 2.22164 
2716 4 0.653451 11.1501 3.44307 
36 1 4.5 7.5 0 
37 1 4.5 9 0 
38 1 4.5 10.5 0 
46 1 6 7.5 0 
47 1 6 9 0 
48 1 6 10.5 0 
981 2 5.66169 9.2093 0.974155 
982 2 6.14552 9.99193 1.15671 
983 2 5.17043 9.46365 1.8409 
984 2 4.93034 10.0225 1.11254 
985 2 4.79801 9.83346 2.63009 
986 2 5.30553 10.6409 2.77629 
2091 3 5.96509 10.2643 2.09305 
2092 3 4.80247 10.6971 1.79026 
2093 3 5.86579 11.3387 3.10685 
3041 4 4.09528 10.7065 2.793 
3342 6 6.4529 9.15061 1.74736 
3392 6 5.83056 9.30245 2.78943 
1042 2 5.60648 11.1403 1.01233 
987 2 4.19329 9.73057 3.37358 
988 2 4.75917 10.4154 3.63609 
3216 5 6.1721 9.98825 3.62956 
2121 3 5.75315 11.266 1.98084 
2212 3 10.1704 8.06641 1.83194 
56 1 7.5 7.5 0 
57 1 7.5 9 0 
58 1 7.5 10.5 0 
66 1 9 7.5 0 
67 1 9 9 0 
68 1 9 10.5 0 
76 1 10.5 7.5 0 
77 1 10.5 9 0 
78 1 10.5 10.5 0 
1281 2 9.03762 8.81645 0.994054 
1282 2 9.97487 8.88312 1.17372 
1283 2 9.18211 8.55804 1.94399 
1284 2 9.52558 9.38041 2.2752 
1285 2 9.52191 8.45369 2.89837 
1286 2 10.3828 8.74891 2.61988 
2241 3 10.8517 8.59332 1.09393 
2242 3 9.28728 10.3036 2.26531 
2762 4 10.4243 9.83497 2.79194 
2925 4 9.40262 7.87326 1.0911 
3156 4 10.7921 9.53775 1.70619 
3222 5 8.7234 10.6679 1.25814 
3614 6 9.49425 9.86223 1.31425 
1342 2 9.97026 10.8131 1.0118 
1345 2 9.70644 11.0672 2.85686 
1346 2 10.6885 11.0903 2.78069 
2271 3 10.8558 10.4555 1.0694 
2744 4 10.3046 10.3632 1.9325 
1287 2 10.0332 8.15636 3.65357 
1288 2 10.2429 9.07295 3.59073 
3298 5 10.5425 7.74373 2.72186 
1347 2 10.156 10.9947 3.72481 
2243 3 11.23 9.00282 3.01609 
2757 4 11.1447 8.36213 2.09812 
2214 3 11.2789 7.93995 3.40899 
2393 3 12.7063 7.45669 3.10062 
3465 6 11.5528 7.75702 1.1798 
86 1 12 7.5 0 
87 1 12 9 0 
88 1 12 10.5 0 
96 1 13.5 7.5 0 
97 1 13.5 9 0 
98 1 13.5 10.5 0 
1581 2 11.9906 8.97873 0.9758 
1582 2 12.0036 9.92459 1.171 
1583 2 12.0877 8.58805 1.83266 
1584 2 11.7213 9.42502 2.14693 
1585 2 12.038 8.12783 2.71751 
2391 3 12.6373 10.0843 1.89434 
2392 3 11.4057 10.3187 2.11248 
2846 4 12.6247 9.07968 2.48422 
3526 6 13.2033 10.0742 2.75321 
1643 2 12.2323 11.0624 1.69677 
1645 2 12.4461 10.9556 2.64788 
1646 2 13.321 11.0872 2.25638 
1587 2 12.1615 8.45396 3.68067 
1588 2 12.8193 9.1421 3.49635 
3766 7 14.5812 10.8481 3.5865 
3439 6 11.1821 10.4407 3.43509 
1647 2 12.5681 10.8272 3.61264 
1648 2 13.4942 11.1272 3.63046 
2742 4 12.1045 10.0261 3.02087 
3277 5 11.4691 9.51315 3.82047 
2756 4 1.98052 11.7403 1.23088 
501 2 3.13514 14.7262 0.977139 
502 2 3.64781 13.9188 1.11806 
503 2 3.03402 14.3093 1.86964 
505 2 2.98596 13.8613 2.73528 
506 2 3.48992 14.6737 2.80574 
9 1 0 12 0 
10 1 0 13.5 0 
19 1 1.5 12 0 
20 1 1.5 13.5 0 
29 1 3 12 0 
30 1 3 13.5 0 
442 2 0.863939 11.8376 1.09742 
444 2 0.455285 12.5511 2.14757 
446 2 0.929244 11.8992 2.78048 
741 2 2.89902 12.027 0.967032 
742 2 3.26677 12.9154 1.02557 
743 2 2.91935 11.9677 1.90702 
744 2 2.86964 12.9019 2.13397 
745 2 2.72708 11.8868 2.90414 
1821 3 1.01466 11.3045 1.93444 
1822 3 0.351703 12.719 3.06309 
1823 3 1.67935 11.3998 3.08361 
1972 3 2.24146 13.0471 2.86109 
2775 4 2.22859 12.7786 1.24154 
2904 4 2.15945 13.831 2.04031 
3043 4 1.70053 12.2501 2.26732 
3361 6 2.38806 13.8088 1.00705 
3888 8 3.50741 12.8174 2.98778 
507 2 3.19048 13.6373 3.65933 
747 2 2.77763 11.3611 3.6467 
748 2 3.19702 12.2107 3.7952 
1851 3 3.67905 13.4707 2.0047 
746 2 3.65509 11.7937 2.89409 
443 2 0.0564841 11.7905 1.85255 
445 2 14.9358 11.7839 2.82316 
3504 6 5.78564 0.0926342 3.05117 
504 2 3.96434 14.6815 1.7858 
801 2 5.76899 14.6307 0.981072 
802 2 6.27224 13.8138 1.12782 
803 2 5.51875 14.4063 1.86606 
805 2 5.36932 14.1229 2.81588 
806 2 6.28382 14.1591 3.09811 
1853 3 4.06489 13.7977 2.83228 
2001 3 5.3754 13.5712 1.07705 
2605 4 4.56039 14.7797 2.76467 
2875 4 3.97489 11.3324 1.55697 
39 1 4.5 12 0 
40 1 4.5 13.5 0 
49 1 6 12 0 
50 1 6 13.5 0 
1041 2 5.79776 12.0585 0.992047 
1043 2 4.92581 11.926 1.46213 
1044 2 5.13568 12.8151 1.77983 
1045 2 4.85008 11.8385 2.44566 
1046 2 5.70929 12.2063 2.49724 
1971 3 3.91114 12.218 1.02764 
1973 3 3.82073 11.3172 3.69271 
2122 3 4.79557 13.677 2.12628 
2123 3 5.73311 13.1215 2.70402 
3117 4 4.36615 13.1449 1.23464 
3269 5 4.60071 12.8023 2.65824 
3552 6 3.90004 12.35 2.04456 
807 2 4.98926 13.4355 3.41773 
808 2 4.59834 14.2261 3.78212 
1047 2 4.81639 11.5048 3.3898 
1048 2 4.22929 12.2009 3.66022 
2124 3 4.20756 13.073 4.02817 
2688 4 5.46604 12.3906 3.58431 
59 1 7.5 12 0 
60 1 7.5 13.5 0 
69 1 9 12 0 
70 1 9 13.5 0 
79 1 10.5 12 0 
80 1 10.5 13.5 0 
1341 2 9.38538 11.5644 0.96226 
1343 2 9.66602 11.3432 1.93569 
1344 2 10.5928 11.4504 1.68021 
1348 2 10.7884 11.7628 3.73467 
2511 4 10.6935 12.1632 2.56963 
2274 3 11.6492 12.2475 3.79313 
201 2 14.8352 0.0163382 1.05468 
202 2 14.4909 14.2135 1.45298 
204 2 14.946 14.9683 2.41669 
1701 3 14.279 13.5372 2.17175 
1703 3 14.1674 14.2858 2.9423 
441 2 14.9526 12.1875 0.976829 
2272 3 11.4633 11.7891 1.80884 
2273 3 11.5665 11.3608 3.00703 
3035 4 11.7415 12.3018 2.67425 
89 1 12 12 0 
90 1 12 13.5 0 
99 1 13.5 12 0 
100 1 13.5 13.5 0 
1641 2 12.1454 11.6544 0.9487 
1642 2 13.0782 11.5156 1.10945 
1644 2 12.5891 11.8612 2.07769 
2421 3 13.8734 11.9702 1.42792 
2422 3 13.3191 12.3311 2.5062 
2423 3 14.2102 11.0704 2.51147 
2751 4 14.4349 12.5606 2.12809 
3213 5 12.5993 11.9018 3.34901 
447 2 14.9772 11.9399 3.75796 
448 2 14.071 11.9569 3.44788 
2997 4 14.4271 13.0295 3.46278 
3522 6 3.54516 3.33208 4.06055 
275 2 0.507614 3.23132 7.15928 
273 2 0.613086 3.63784 6.26357 
3435 6 4.10782 2.93216 5.01837 
1854 3 3.99613 0.0687876 4.41858 
2704 4 5.52188 3.37671 4.98252 
1109 2 9.98872 1.7989 4.45403 
1110 2 10.9389 1.54039 4.38591 
1111 2 10.2666 2.06534 5.34164 
1112 2 10.55 2.97859 5.348 
1113 2 10.1633 2.25038 6.27744 
1114 2 11.0676 2.54214 6.11566 
1169 2 9.89509 3.39314 4.61933 
1172 2 9.20057 3.74147 5.57927 
2154 3 10.6391 2.59661 4.25024 
2156 3 10.9792 3.7263 5.85862 
3097 4 9.34137 2.68896 5.57434 
3405 6 10.1179 3.33428 6.37617 
1115 2 10.4654 2.43163 7.14707 
1116 2 9.49991 2.68903 7.08932 
2158 3 10.0839 3.33497 7.45748 
2789 4 10.987 3.60514 6.88553 
2157 3 11.4546 2.70941 6.98634 
209 2 13.9237 0.894977 4.44995 
210 2 14.8545 0.787421 4.73243 
211 2 13.7299 1.07996 5.33336 
212 2 13.9594 1.99412 5.37571 
213 2 13.9325 1.47543 6.20314 
214 2 14.7055 2.07612 6.13009 
1704 3 14.5922 1.99829 4.29879 
1705 3 14.9379 1.5736 5.30081 
1706 3 14.0897 2.86344 5.74611 
1707 3 14.9043 2.17727 7.1065 
2155 3 11.513 2.23957 4.84376 
1409 2 11.961 1.27915 4.61493 
1410 2 12.8945 1.40004 4.68162 
1411 2 12.0073 1.6242 5.48927 
1412 2 12.8996 1.94095 5.59785 
1413 2 12 2.00564 6.349 
1414 2 12.9085 1.74069 6.61265 
1469 2 12.3749 3.56092 4.52215 
1471 2 12.6743 3.7619 5.41907 
2304 3 12.4461 2.32382 4.42721 
2305 3 13.497 2.14437 4.46588 
2306 3 12.3214 2.69201 5.47718 
2307 3 12.9821 1.5133 7.56472 
2494 4 11.5403 3.27797 5.15793 
3105 4 13.0008 2.78599 6.28957 
3730 6 13.4114 3.43034 7.05627 
215 2 13.9469 1.57698 7.15095 
216 2 13.8197 2.48271 6.86817 
1708 3 14.4386 3.10693 7.21835 
2841 4 11.9061 3.42316 6.19522 
1415 2 11.9309 1.84772 7.323 
1416 2 12.5354 2.60678 7.27172 
3296 5 11.8433 3.60629 7.44423 
3307 5 13.2155 2.9263 5.02113 
3371 6 1.4783 4.85717 4.17668 
270 2 0.624256 4.29947 4.5148 
272 2 0.333218 4.44897 5.65288 
274 2 0.657567 4.42138 6.81428 
569 2 2.12633 4.00651 4.35993 
570 2 3.05693 4.27162 4.2908 
571 2 2.43373 4.02366 5.28477 
572 2 2.04942 4.85882 5.22096 
573 2 2.28131 4.04622 6.24085 
574 2 3.17103 4.36985 6.14708 
1735 3 1.32487 4.11684 5.16322 
1737 3 1.40693 4.92734 7.14853 
3036 4 1.38873 4.71028 6.10238 
2839 4 3.43585 3.74273 5.05264 
329 2 0.2537 5.46769 4.47402 
330 2 0.804474 6.28964 4.41996 
331 2 14.9903 5.57439 5.43335 
332 2 0.50922 6.38516 5.4309 
334 2 0.757845 5.64925 6.23142 
629 2 1.75304 5.94385 4.72395 
630 2 2.31823 6.73656 4.76938 
631 2 1.67292 6.07692 5.6769 
632 2 1.54748 7.02459 5.50639 
633 2 1.86925 5.80556 6.60104 
634 2 2.76029 6.06211 6.39054 
1765 3 1.54743 6.84023 3.99791 
1767 3 0.990931 6.53184 6.63449 
1884 3 2.5252 5.33174 4.47992 
1886 3 2.49194 5.17535 5.96669 
2706 4 1.00619 5.24951 5.17527 
3558 6 2.6231 6.93729 5.81589 
1915 3 2.68917 6.0378 5.30109 
1917 3 3.43721 6.69889 6.29598 
3067 4 3.45501 5.56031 5.80803 
3628 6 3.46843 5.79786 4.68332 
2625 4 3.51156 6.78296 5.22773 
575 2 2.31139 4.41734 7.13529 
576 2 2.92888 5.08482 6.96859 
2677 4 3.10702 4.82592 5.13142 
336 2 0.522012 5.79644 7.26431 
635 2 2.21544 6.05742 7.47544 
636 2 2.69174 6.91233 7.48216 
1768 3 0.429955 6.66456 7.54395 
2487 4 3.29755 6.14667 7.37088 
3125 4 1.52211 3.67882 6.89127 
3799 7 1.96008 6.82645 6.65408 
3083 4 3.5039 4.22573 7.21602 
3000 4 1.5304 6.93602 7.58669 
869 2 4.65482 3.75805 4.37759 
870 2 5.40351 4.20701 4.03998 
871 2 4.72295 3.88448 5.32628 
872 2 5.032 4.65408 4.8787 
873 2 4.64532 4.02077 6.2682 
874 2 4.99405 4.88506 6.09571 
1885 3 3.90447 4.5493 4.53358 
1887 3 3.91831 4.85353 6.54808 
2035 3 6.08737 4.3241 4.68878 
2037 3 5.59567 4.34823 6.66929 
2713 4 5.66573 4.20582 5.65833 
929 2 4.46685 5.74113 4.46843 
930 2 5.24614 6.0853 4.85217 
931 2 4.41656 5.70804 5.46162 
932 2 4.62973 6.62089 5.5399 
933 2 4.2287 5.89837 6.33608 
934 2 5.19394 5.96014 6.30532 
2034 3 4.48947 5.00874 3.79789 
2036 3 5.59536 5.24653 5.30913 
2064 3 4.45853 6.80612 4.4064 
2065 3 6.09214 6.26186 5.31851 
2067 3 6.05438 5.54741 6.43112 
2920 4 4.12479 4.76137 5.57454 
3384 6 5.68761 5.9612 7.3701 
2619 4 6.30567 6.2078 3.94767 
875 2 4.5958 4.28782 7.22958 
876 2 4.89856 5.14217 7.08608 
3233 5 5.42593 5.42243 4.18333 
935 2 4.46187 6.01315 7.28492 
936 2 4.05982 6.87463 7.41583 
2530 4 3.72844 5.25727 7.69363 
2743 4 4.74434 6.81499 6.6123 
2890 4 6.41748 5.40247 4.72733 
3261 5 6.73038 4.62077 5.48658 
2470 4 9.46748 7.15821 4.28056 
1170 2 10.793 3.6222 4.40232 
1171 2 10.1427 3.9092 5.37162 
2869 4 9.2842 3.83899 6.76443 
1173 2 10.151 4.35875 6.22821 
1174 2 11.0304 4.76569 6.16375 
1229 2 11.0937 6.00852 4.19645 
1233 2 11.0218 6.05704 6.03116 
2184 3 9.91318 4.45995 4.43925 
2186 3 8.44467 3.94549 6.20764 
2617 4 10.9548 4.43046 5.06664 
2910 4 10.1459 6.63775 6.35056 
3511 6 10.5718 6.72871 4.65652 
1175 2 10.1739 4.44319 7.17798 
1176 2 10.7843 5.18922 7.34691 
1235 2 11.0883 6.22597 6.98621 
1236 2 10.6576 6.97438 7.31411 
2364 3 13.2146 7.0668 4.05724 
271 2 14.9249 3.5979 5.60531 
276 2 0.0719136 4.02595 7.53753 
335 2 14.8221 5.18806 7.32967 
3250 5 14.8627 6.43637 6.74071 
1231 2 11.3601 5.92591 5.14689 
1232 2 11.3768 6.86734 5.44052 
2216 3 11.4866 7.02418 6.41996 
269 2 14.9639 3.64386 4.65766 
2187 3 11.7203 4.38525 6.73626 
3708 6 11.8029 4.2775 5.6123 
1470 2 13.2649 3.77463 4.25591 
1472 2 12.7393 4.70076 5.20883 
1473 2 12.8084 3.91165 6.41881 
1474 2 13.7291 3.95757 6.30188 
2335 3 13.6304 4.61292 4.55616 
2337 3 14.0504 4.24133 7.14448 
3360 6 11.9345 4.46207 4.60102 
3440 6 13.3426 4.87891 6.84142 
333 2 14.8712 5.32023 6.34722 
1734 3 14.5886 4.66215 4.29451 
1736 3 14.7239 4.23399 6.40495 
1764 3 14.8628 6.71523 4.47811 
1766 3 14.5809 6.57902 5.5198 
1230 2 11.7927 6.61503 4.44271 
1234 2 11.8114 5.53044 6.30306 
2215 3 12.0534 7.41897 4.99097 
2217 3 12.16 6.22413 6.88444 
1529 2 12.2472 5.44747 4.58257 
1530 2 13.1634 5.61983 4.26527 
1531 2 12.4673 5.67412 5.51526 
1532 2 13.4056 5.8243 5.24068 
1533 2 12.9707 5.80039 6.37991 
1534 2 13.9389 5.81035 6.55265 
2336 3 13.5405 4.92754 5.65731 
2366 3 13.8307 6.60837 4.85559 
2367 3 13.6101 6.5959 6.10453 
2926 4 14.103 5.53215 4.68482 
3054 4 12.7459 6.50293 4.77258 
3166 4 14.4309 4.68099 5.33798 
3707 6 14.5043 6.20732 7.6625 
1475 2 12.7021 4.23444 7.34528 
1476 2 12.3488 5.14288 7.15708 
3065 4 13.9226 3.79962 5.12449 
1535 2 13.1083 5.86758 7.36396 
1536 2 12.7977 6.7153 7.62965 
2368 3 12.6064 7.15915 6.80291 
3334 5 12.4089 6.7059 5.9144 
3291 5 12.5418 4.83377 6.18885 
3249 5 12.8032 4.71469 3.90447 
3452 6 12.2321 7.44015 3.99345 
3308 5 11.6763 6.814 7.53038 
3149 4 13.781 5.14577 7.74438 
3648 6 1.26599 8.69164 4.21851 
1916 3 1.81532 7.75018 6.06731 
388 2 0.626093 10.2658 3.92612 
389 2 0.430298 9.44249 4.65364 
390 2 1.33202 9.45243 4.97333 
391 2 0.235095 9.42281 5.58265 
392 2 0.824274 10.1495 5.73249 
393 2 14.9993 9.43478 6.51008 
394 2 0.782216 10.0165 6.79762 
688 2 2.42229 10.2758 3.94766 
689 2 2.41726 9.20267 4.58876 
690 2 3.22243 9.71753 4.4849 
691 2 2.37998 8.99841 5.56824 
692 2 2.88099 9.81617 5.60286 
693 2 2.36238 8.86558 6.48336 
694 2 3.27676 8.96845 6.2898 
1794 3 1.16949 10.674 4.59164 
1795 3 2.02418 10.108 4.99947 
1797 3 1.43255 10.6861 6.54253 
1946 3 2.81599 9.92088 6.57083 
2524 4 1.87719 9.85861 5.9725 
2539 4 1.58348 9.64503 4.01361 
2732 4 1.59861 10.9642 5.54748 
3883 8 1.21509 9.08333 6.21457 
1945 3 3.4444 8.98622 5.08265 
3378 6 3.00473 7.9722 5.51486 
2658 4 0.159482 10.5402 4.85748 
749 2 2.97983 10.9481 4.52262 
751 2 2.5703 10.8641 5.37345 
753 2 2.49418 10.8125 6.31473 
1827 3 0.663006 11.138 7.07352 
2068 3 3.51534 7.61335 7.16124 
396 2 14.9809 10.1391 7.49178 
695 2 2.0413 8.6433 7.36258 
1948 3 3.47321 9.7556 7.3553 
2745 4 0.996349 9.06893 7.20073 
2915 4 1.77086 9.80663 7.03472 
2519 4 3.14271 8.49909 7.35454 
2832 4 3.47157 10.6541 5.88972 
2902 4 3.8137 7.63146 6.167 
2469 4 14.9124 10.4103 6.17638 
755 2 2.28257 10.6403 7.26507 
756 2 3.21166 10.7623 7.29266 
3272 5 2.67449 7.87276 6.6959 
3034 4 1.33965 10.4644 7.61235 
1796 3 0.640957 11.1223 5.65927 
3313 5 1.8284 11.3588 4.24195 
696 2 2.63546 9.3706 7.57748 
2066 3 4.75356 7.58303 5.75837 
989 2 4.40559 9.41269 4.29387 
990 2 5.3548 9.55688 4.10478 
991 2 4.39956 9.0339 5.24975 
992 2 5.31407 9.33558 5.27131 
993 2 4.33539 8.5841 6.15603 
994 2 5.22152 8.41652 6.34919 
1947 3 3.90219 9.70155 6.21896 
2094 3 5.58627 10.8498 3.90785 
2095 3 5.97177 9.94865 4.73694 
2096 3 5.07385 9.39715 6.22384 
2097 3 5.35079 8.43224 7.29247 
2585 4 4.90748 10.3054 4.76272 
2588 4 4.06888 8.04288 5.20377 
2999 4 3.92067 9.99867 5.25516 
3882 8 3.97698 10.4674 4.35722 
2556 4 5.89197 10.7212 5.60219 
995 2 4.19898 8.76407 7.06458 
996 2 4.65181 9.59641 7.18844 
2098 3 4.22339 10.3914 6.9114 
3006 4 4.72271 10.282 5.79502 
2992 4 5.62595 9.50102 7.12338 
3728 6 5.27826 10.4125 6.72802 
3211 5 4.50607 7.81145 7.04181 
1051 2 4.33245 11.0777 5.23705 
2627 4 11.3173 7.55494 4.35329 
1289 2 10.3116 7.79321 4.53223 
1290 2 10.9007 8.49968 4.19764 
1291 2 10.5108 7.45852 5.44435 
1292 2 10.6294 8.40357 5.2748 
1293 2 10.4536 7.72102 6.39174 
1294 2 10.8422 8.6035 6.31939 
2244 3 10.4396 9.9405 4.02617 
2246 3 9.86183 8.69118 5.8435 
2934 4 10.0908 9.05906 4.61657 
3415 6 10.1886 9.42378 6.96177 
3567 6 9.81897 9.97095 5.07279 
3729 6 11.0385 9.32379 4.88881 
1349 2 10.6291 10.8646 4.63644 
1351 2 10.7561 10.5422 5.52992 
1352 2 9.92338 10.9302 5.54945 
1353 2 10.6339 10.4187 6.46147 
2276 3 9.03037 10.8919 5.79176 
2811 4 9.55546 9.83649 6.12717 
2900 4 9.75045 10.8479 6.60742 
1295 2 10.2492 8.03568 7.27436 
1296 2 10.8866 8.71446 7.34383 
2248 3 10.935 9.67017 7.65191 
3337 5 10.5337 9.44428 5.83616 
1355 2 10.811 10.7893 7.30665 
1356 2 10.0108 10.3341 7.54655 
2278 3 9.17505 10.0005 7.23716 
395 2 14.8707 9.24125 7.40553 
2245 3 11.7208 8.39058 4.7189 
2247 3 11.3613 7.938 6.79487 
3133 4 12.692 10.1707 5.19946 
3175 4 11.8219 8.81611 5.7068 
1589 2 12.6972 8.20164 4.44953 
1590 2 13.4502 8.76797 4.26565 
1591 2 12.8576 8.17636 5.46258 
1592 2 12.673 9.06288 5.16343 
1593 2 12.421 8.08119 6.31027 
1594 2 12.9908 8.85366 6.38252 
2394 3 13.2207 9.93029 3.81799 
2395 3 13.6474 9.5276 4.78416 
2396 3 12.1686 9.57768 4.56631 
2397 3 12.3851 9.5324 6.11387 
2727 4 14.3502 9.86297 5.41624 
3472 6 13.3363 9.84291 5.83348 
1350 2 11.4224 10.2999 4.67227 
1354 2 11.2407 9.68126 6.61056 
2275 3 11.6435 9.91606 5.49763 
2277 3 11.7927 8.89295 6.75401 
1649 2 12.3923 10.8986 4.52613 
1650 2 13.3607 10.7416 4.61627 
1651 2 11.7842 11.2183 5.24595 
1653 2 11.6282 10.8104 6.10807 
1654 2 12.5658 10.6023 6.17399 
2425 3 14.2529 10.4305 4.466 
2427 3 13.4335 10.7356 6.58113 
3192 4 13.7049 10.7522 5.53227 
1595 2 12.2829 8.11263 7.30016 
1596 2 12.7053 8.96271 7.36705 
2398 3 12.0094 9.60438 7.54159 
2983 4 13.736 8.77428 5.6231 
3187 4 13.7059 8.95464 7.21202 
455 2 14.2697 10.8965 7.11077 
1655 2 11.8898 10.6298 7.02659 
1658 2 13.277 10.7546 7.62505 
2429 3 13.8818 9.98568 7.38802 
3064 4 14.0627 9.84115 6.4405 
3330 5 11.4984 7.86697 5.76637 
3329 5 12.8827 9.962 7.0175 
451 2 14.646 11.2844 5.36502 
508 2 3.56898 14.4629 3.80777 
509 2 3.17121 13.7494 4.57612 
511 2 3.17869 13.659 5.60829 
512 2 2.91615 14.3141 6.20583 
513 2 3.24977 13.256 6.48508 
1856 3 3.11658 14.2133 7.14635 
2681 4 3.63053 14.7227 5.46239 
450 2 0.494452 11.4537 4.56147 
454 2 0.165438 11.6158 6.42561 
750 2 2.73849 11.8626 4.70181 
752 2 2.23655 11.7399 5.61943 
754 2 3.12774 11.4597 6.52422 
1825 3 1.1072 11.9459 5.06066 
1974 3 3.38505 12.791 4.56813 
1976 3 2.6011 12.3613 6.2483 
3639 6 2.48172 13.0053 5.04732 
1975 3 3.2892 11.5581 5.44306 
1977 3 3.54175 12.2689 6.86176 
515 2 3.14359 13.1766 7.46331 
1978 3 2.80015 11.633 7.59019 
3200 4 1.97117 11.5992 6.7632 
3324 5 3.41617 12.5495 5.59161 
2003 3 5.64643 14.1248 3.78662 
510 2 4.13232 13.9045 4.63357 
514 2 3.82261 14.0254 6.39675 
809 2 5.19053 13.2033 4.38936 
810 2 6.03795 13.3668 4.79195 
811 2 5.20365 13.2742 5.3528 
812 2 5.40324 14.161 5.60695 
813 2 5.27787 13.2928 6.3047 
814 2 6.04663 13.8216 6.43279 
1855 3 4.41385 13.8682 5.53563 
1857 3 4.7894 14.2423 6.57272 
2005 3 6.4918 13.2316 5.60453 
2006 3 4.87901 14.9345 5.74374 
2007 3 6.14373 12.8909 6.75369 
1049 2 4.74348 11.2843 4.37653 
1050 2 4.78936 12.236 4.53114 
1052 2 4.31849 12.0255 5.44197 
1053 2 4.23726 11.223 6.21943 
1054 2 5.17045 11.3268 6.09513 
2125 3 5.37677 11.7946 5.14498 
2126 3 4.23778 12.9408 5.10404 
2127 3 6.03061 11.2799 6.52258 
2982 4 5.76647 12.4111 5.87296 
3055 4 3.7562 11.8235 4.54511 
3889 8 4.65412 12.1708 6.52657 
815 2 5.09192 12.9672 7.21299 
816 2 5.58496 13.7798 7.3111 
3276 5 5.01003 14.6412 4.66345 
1055 2 4.07557 11.3956 7.15645 
1056 2 4.99257 11.1792 7.42596 
2128 3 5.42155 12.0023 7.12173 
2455 4 4.45854 12.2485 7.551 
2787 4 4.19106 13.2992 7.05277 
3792 7 4.28452 13.0015 6.05596 
449 2 14.5214 11.4467 4.42726 
452 2 14.7241 12.2105 5.34957 
453 2 14.3158 11.2773 6.27209 
1824 3 13.6292 12.5597 3.99596 
1826 3 14.1125 12.2911 6.08856 
2613 4 11.5248 11.1392 4.12937 
1652 2 12.7216 11.3219 5.36787 
2424 3 13.0438 11.6464 4.30776 
2426 3 13.1675 11.7817 6.14 
3082 4 13.6612 11.7935 5.11906 
456 2 14.6265 11.7638 7.26781 
1656 2 12.6216 11.2727 6.98561 
2428 3 12.5134 12.2084 6.99027 
2453 4 12.0567 11.7183 6.10827 
3060 4 13.5589 11.7385 7.21469 
3123 4 11.6331 11.5576 7.33396 
277 2 0.698261 3.2381 8.11832 
279 2 0.401555 3.35201 9.01118 
281 2 0.570626 3.78106 9.86179 
282 2 1.49902 3.66681 9.94585 
1711 3 0.354684 2.95418 10.3876 
1891 3 3.43917 3.52016 11.1767 
3432 6 3.38479 3.64361 9.12906 
283 2 0.867182 3.76926 10.8269 
3013 4 3.53717 3.58814 8.0248 
3260 5 1.8249 3.48672 8.55631 
881 2 4.25549 3.80354 9.74419 
2600 4 4.5143 3.48254 8.33345 
883 2 4.16349 3.14003 10.5118 
885 2 3.99345 2.66026 11.3135 
886 2 4.85264 3.08351 11.4651 
2012 3 4.47096 0.387911 11.5691 
3140 4 4.05535 1.33671 11.3181 
1117 2 10.2188 2.29285 8.05204 
1118 2 11.0973 1.89371 7.967 
1119 2 10.0421 2.27977 8.9963 
1120 2 10.9562 2.5371 8.85724 
1121 2 10.3188 2.11892 9.87878 
2159 3 11.3139 1.57254 8.84669 
2160 3 10.577 3.12017 9.5163 
2770 4 10.1402 3.20367 8.54374 
3176 4 10.975 2.99707 7.80825 
1123 2 10.4009 1.54572 10.6708 
1124 2 10.3166 2.46266 10.9287 
1183 2 10.3974 3.70359 10.8397 
3061 4 11.0976 1.14426 9.78887 
3132 4 10.3822 1.28321 8.56129 
1122 2 11.2545 2.19634 9.83081 
2161 3 11.4296 1.9656 10.7505 
2162 3 11.1051 2.87491 10.5886 
217 2 13.9749 1.63547 8.10162 
218 2 14.6489 2.36243 8.21784 
219 2 14.0748 1.78095 9.05431 
220 2 13.8218 2.6887 8.81623 
221 2 13.9907 2.09277 9.98455 
222 2 14.7593 2.56431 9.74005 
1709 3 14.5477 3.29139 8.31104 
1710 3 13.732 3.02871 9.69851 
2191 3 11.7838 3.72642 10.3923 
2566 4 11.7478 3.59683 8.50068 
1417 2 12.1881 1.63424 8.24078 
1418 2 12.9216 2.23858 8.38064 
1419 2 12.3004 1.45326 9.23152 
1420 2 11.9849 2.37652 9.09681 
1421 2 12.2595 1.25423 10.1901 
1422 2 13.1391 0.95813 10.0777 
2308 3 12.7133 3.36561 7.83201 
2309 3 13.148 1.37876 8.66698 
2310 3 11.7017 3.17857 9.51597 
2311 3 13.1456 1.84672 10.5259 
2760 4 13.6595 3.73924 8.0371 
3409 6 11.9377 2.70612 8.11973 
3660 6 12.72 3.36429 9.87909 
223 2 14.0768 2.23878 10.8939 
224 2 14.2412 3.11385 10.5356 
3791 7 14.5537 3.78701 9.70052 
1712 3 13.759 3.61232 11.2348 
2687 4 12.2158 2.39701 10.0832 
1423 2 12.2354 1.2325 11.147 
1424 2 12.3715 2.21448 11.1543 
2312 3 12.2667 3.13629 11.1668 
2942 4 12.7543 3.17582 8.81036 
3268 5 13.0601 2.29708 9.47885 
3797 7 13.1657 2.88353 10.6676 
2852 4 13.6051 2.62249 7.79387 
2577 4 0.0670008 1.87064 10.6047 
3309 5 13.8356 1.204 10.9999 
226 2 14.8962 2.89346 11.4058 
583 2 2.3583 3.75146 10.8075 
278 2 1.08415 4.06652 7.80293 
280 2 0.962636 4.1078 8.8796 
577 2 2.65368 4.06854 8.06174 
578 2 3.31572 4.62751 8.46874 
579 2 2.54513 4.16307 9.00173 
580 2 2.49601 5.11998 8.86261 
581 2 2.40958 4.09421 9.93317 
582 2 3.32357 3.78817 10.225 
1739 3 1.71675 4.59218 8.30987 
1741 3 1.57014 4.54497 10.3388 
338 2 0.375697 5.94192 8.39418 
341 2 0.148951 5.79681 9.89314 
342 2 0.897929 6.1737 9.43985 
637 2 2.25303 6.61121 8.30866 
638 2 3.01972 6.01489 8.33741 
639 2 2.65592 6.73328 9.20774 
640 2 2.42938 7.43807 9.77158 
641 2 2.39635 6.18003 9.94053 
642 2 3.31124 6.44495 10.1083 
1738 3 14.8886 4.28723 8.45681 
1740 3 1.65949 4.48486 9.34148 
1769 3 1.16051 6.48785 8.51718 
1771 3 1.52033 5.65116 9.95259 
1888 3 2.54917 5.16043 7.87827 
1890 3 1.83133 5.81105 8.9946 
1920 3 1.63181 7.32703 10.2903 
2568 4 1.51147 5.56955 7.99455 
2612 4 1.48732 7.61101 8.52916 
2859 4 0.588044 4.9674 7.91181 
3538 6 3.33995 4.75355 9.56575 
940 2 3.52827 7.41846 9.28261 
1919 3 3.11084 5.81385 9.27505 
3735 6 3.293 6.9904 8.32362 
3856 8 3.31321 5.37916 10.3918 
284 2 0.703618 4.70348 10.9667 