ITEM: TIMESTEP
1000
ITEM: NUMBER OF ATOMS
2570
ITEM: BOX BOUNDS pp pp ff
0 15
0 15
0 42
ITEM: ATOMS id type x y z 
1 1 0 0 0 
2 1 0 1.5 0 
3 1 0 3 0 
11 1 1.5 0 0 
12 1 1.5 1.5 0 
13 1 1.5 3 0 
21 1 3 0 0 
22 1 3 1.5 0 
23 1 3 3 0 
201 2 0.218035 14.9542 0.993961 
203 2 0.410782 0.505842 1.74182 
204 2 0.662361 1.42338 1.48093 
205 2 0.696529 1.01789 2.49923 
206 2 1.53759 1.22668 2.07842 
241 2 0.028742 2.91924 0.98439 
242 2 0.970752 2.61805 1.08047 
243 2 0.358287 3.0858 1.87547 
244 2 0.899678 3.77595 1.44703 
245 2 0.694625 3.55962 2.60887 
246 2 1.5516 3.44378 2.26017 
401 2 3.21519 0.101535 0.969677 
403 2 2.51321 0.67644 1.32677 
404 2 3.11109 1.43186 1.21117 
405 2 2.86969 0.554522 2.19892 
406 2 3.78735 0.271877 2.27609 
441 2 3.17532 2.95849 0.980139 
443 2 3.45895 3.35674 1.82967 
1201 3 1.32969 0.311718 1.20889 
1202 3 0.554926 2.05673 2.20909 
1203 3 2.49146 1.45967 2.10845 
1221 3 1.82111 2.96316 1.3407 
1704 4 1.77005 1.63751 1.11136 
2022 4 2.5438 3.22775 2.39263 
2299 6 2.64097 2.36749 1.59855 
2511 6 1.31564 2.63149 3.14591 
207 2 1.06305 1.394 3.32328 
208 2 1.90348 1.61242 2.94158 
407 2 2.93197 1.02059 3.01265 
447 2 3.13073 3.32845 3.3239 
1204 3 2.62284 2.28225 2.90643 
1760 4 1.58549 2.26781 2.17079 
1888 4 2.01642 3.32066 3.28023 
1928 4 3.46212 2.17646 2.3239 
402 2 4.00923 0.544378 1.2579 
442 2 3.88182 2.39237 1.35665 
445 2 3.81081 3.31184 2.67625 
1302 3 3.78971 1.27333 1.85872 
31 1 4.5 0 0 
32 1 4.5 1.5 0 
33 1 4.5 3 0 
41 1 6 0 0 
42 1 6 1.5 0 
43 1 6 3 0 
601 2 6.11576 14.8574 1.01558 
603 2 5.60321 0.240004 1.71694 
604 2 5.75272 1.19522 1.42366 
605 2 6.21417 0.415219 2.3881 
606 2 6.43948 1.3364 2.21863 
641 2 6.2432 3.10287 0.973292 
642 2 5.79297 2.43945 1.5403 
643 2 5.6359 3.6997 1.43993 
645 2 5.52747 3.57193 2.39334 
1303 3 4.71464 0.449677 2.47484 
1321 3 4.66564 2.85753 1.06183 
1402 3 6.58545 1.69174 1.21359 
1403 3 7.19607 1.23546 2.80152 
1421 3 6.42846 2.89591 2.07579 
1423 3 6.953 3.45442 2.90207 
2072 4 4.8095 1.7455 1.12929 
2125 4 4.46273 2.20637 2.42099 
2249 5 6.67209 0.557808 1.52432 
2585 7 7.49738 1.09396 1.78452 
2549 6 7.35963 -0.00379994 2.41368 
408 2 3.83386 1.28226 2.86219 
1304 3 4.70854 1.44387 3.08391 
647 2 5.6728 3.2929 3.28883 
1404 3 6.43706 2.0566 3.2967 
2161 4 7.17462 2.30487 2.55492 
2278 5 5.69548 2.10176 2.48901 
1401 3 7.20611 14.4783 1.3704 
51 1 7.5 0 0 
52 1 7.5 1.5 0 
53 1 7.5 3 0 
61 1 9 0 0 
62 1 9 1.5 0 
63 1 9 3 0 
71 1 10.5 0 0 
72 1 10.5 1.5 0 
73 1 10.5 3 0 
801 2 8.76364 0.0280684 1.02147 
802 2 9.34205 0.802771 1.1412 
803 2 8.48757 0.453644 1.8344 
804 2 8.51325 1.38869 1.68008 
805 2 8.19777 0.708383 2.67573 
806 2 9.01236 1.24691 2.72583 
841 2 9.11962 2.99478 0.966 
843 2 9.47854 2.38253 1.60433 
844 2 9.98399 3.13215 1.82711 
845 2 8.96604 2.30048 2.40202 
846 2 9.64566 2.7942 2.88192 
1501 3 9.6045 0.256511 1.89376 
1502 3 8.13367 2.24404 1.73018 
1503 3 9.1422 1.81918 3.48633 
1523 3 9.70791 3.73008 3.23791 
2602 7 10.5636 2.63365 1.05959 
1004 2 10.5797 1.00609 1.29994 
1005 2 11.179 1.39159 2.19146 
1006 2 10.5583 2.11336 2.0109 
1045 2 10.7178 3.42527 2.50282 
1601 3 10.7533 0.226361 2.02355 
1602 3 10.0297 1.25683 2.04732 
1603 3 11.2047 2.43875 2.62817 
1522 3 9.08114 3.38523 1.94785 
847 2 8.58211 2.79925 3.16003 
848 2 8.6562 3.72445 2.9623 
1916 4 8.06051 1.78152 2.75324 
1007 2 10.9249 1.36408 3.13874 
1008 2 10.2078 1.98333 3.08864 
1047 2 10.6027 3.19676 3.4253 
2288 5 9.99658 0.67276 3.00824 
81 1 12 0 0 
82 1 12 1.5 0 
83 1 12 3 0 
91 1 13.5 0 0 
92 1 13.5 1.5 0 
93 1 13.5 3 0 
1001 2 11.8831 0.0841264 1.00748 
1002 2 11.6037 14.8576 1.91924 
1003 2 11.5138 0.834946 1.50938 
1041 2 11.832 2.96904 1.01304 
1043 2 11.2257 3.17813 1.71436 
1623 3 11.6938 3.29327 3.46416 
444 2 3.23288 4.1665 1.36519 
1223 3 2.03288 3.96943 1.57885 
2488 6 3.21967 4.25271 2.35421 
4 1 0 4.5 0 
5 1 0 6 0 
14 1 1.5 4.5 0 
15 1 1.5 6 0 
24 1 3 4.5 0 
25 1 3 6 0 
281 2 0.16169 5.93294 0.981493 
282 2 0.786923 6.67275 1.12588 
283 2 0.69004 5.55675 1.7467 
284 2 0.635272 6.45227 2.23369 
285 2 1.00155 5.47222 2.62565 
286 2 1.62057 6.16628 2.47922 
481 2 2.8687 5.80603 0.983362 
483 2 2.601 6.1634 1.79786 
484 2 2.78272 7.00651 1.20075 
485 2 2.93509 6.05637 2.70127 
1222 3 1.03836 4.44707 2.11846 
1241 3 1.6811 6.23435 1.3188 
1242 3 1.03585 7.12808 2.76527 
1243 3 2.1927 6.81766 2.87326 
1796 4 2.97767 7.29999 2.22762 
2111 4 3.14559 5.29315 1.94037 
2126 4 1.9044 7.20221 1.75299 
248 2 1.21538 4.49312 3.17103 
448 2 3.09424 4.30013 3.45849 
2396 6 2.27995 4.22177 2.68115 
287 2 1.05514 5.43004 3.59061 
288 2 1.23942 6.38975 3.80922 
488 2 3.36893 7.07374 3.44465 
1324 3 3.49459 5.0504 3.01526 
2178 4 2.05677 5.28056 3.05013 
2603 7 2.04171 5.04871 1.89889 
446 2 4.52452 3.93567 2.6534 
644 2 6.13696 4.54955 1.38051 
646 2 6.36664 4.05808 2.48789 
1323 3 5.26013 4.34626 3.15669 
2073 4 4.43819 3.76927 1.6201 
482 2 3.79598 5.78899 1.29582 
486 2 3.78982 6.41797 2.73843 
1322 3 3.97361 4.79014 1.61503 
34 1 4.5 4.5 0 
35 1 4.5 6 0 
44 1 6 4.5 0 
45 1 6 6 0 
681 2 5.95659 5.95396 1.04756 
682 2 6.4 5.6336 1.82872 
683 2 5.59658 6.38881 1.80999 
684 2 5.3446 7.03586 1.14272 
685 2 4.89682 6.53703 2.46045 
686 2 5.57253 6.48493 3.17494 
1341 3 4.70794 5.65089 1.33954 
1343 3 4.44253 5.82048 3.17831 
1422 3 5.57755 4.72536 2.13358 
1441 3 5.99373 5.5108 2.64091 
1443 3 6.50906 6.66001 3.44703 
1788 4 5.0706 4.68835 1.14807 
2038 4 3.82629 6.86369 1.65968 
2450 6 3.92676 7.46031 2.5984 
687 2 4.50115 6.85273 3.32763 
1424 3 6.40371 4.88433 3.53974 
2213 5 4.58595 5.05039 2.41306 
842 2 8.64574 3.81153 1.01082 
1521 3 9.57838 3.92055 1.15039 
1044 2 10.7222 3.83563 1.18619 
54 1 7.5 4.5 0 
55 1 7.5 6 0 
64 1 9 4.5 0 
65 1 9 6 0 
74 1 10.5 4.5 0 
75 1 10.5 6 0 
881 2 9.03011 6.1496 0.958066 
882 2 9.86369 6.39498 1.31982 
883 2 8.49722 5.80995 1.68571 
884 2 8.07298 6.6432 1.89907 
885 2 9.13468 6.37164 2.13683 
886 2 9.54025 6.12167 2.97193 
1541 3 10.2597 5.54432 1.21059 
1869 4 9.31248 5.00015 1.2903 
1943 4 9.04532 5.25055 2.54491 
2189 4 8.39195 4.38318 2.04198 
2402 6 10.0247 5.56712 2.26867 
1083 2 11.1875 6.09821 1.15969 
1084 2 11.3916 7.03286 1.20454 
1085 2 11.1045 5.87963 2.10161 
1086 2 10.7329 6.80252 2.00677 
1622 3 10.3179 4.56836 1.65018 
1641 3 11.6107 4.90226 1.08828 
1643 3 11.6139 7.06778 2.30769 
1709 4 11.3523 4.68209 2.05934 
1561 3 10.168 7.54067 1.0744 
1918 4 9.21214 7.11614 1.21461 
887 2 8.73775 6.81139 2.87398 
888 2 9.49785 7.39364 2.7803 
1524 3 8.57924 4.62123 3.25343 
1899 4 9.48295 4.39747 2.2434 
1087 2 11.2408 5.8735 3.0684 
1088 2 10.6527 6.62356 3.03941 
2461 6 10.424 4.47203 2.73021 
1042 2 11.9601 3.91555 1.09727 
1046 2 11.5882 3.8432 2.68057 
1621 3 12.3981 4.35046 1.88288 
84 1 12 4.5 0 
85 1 12 6 0 
94 1 13.5 4.5 0 
95 1 13.5 6 0 
1081 2 12.1376 6.1574 0.96306 
1082 2 12.2462 5.41394 1.59829 
1642 3 11.7415 7.84283 1.56607 
2227 5 12.5237 7.27842 2.86251 
1342 3 3.36621 7.7803 1.13836 
6 1 0 7.5 0 
7 1 0 9 0 
8 1 0 10.5 0 
16 1 1.5 7.5 0 
17 1 1.5 9 0 
18 1 1.5 10.5 0 
26 1 3 7.5 0 
27 1 3 9 0 
28 1 3 10.5 0 
321 2 0.160636 8.88195 1.00045 
322 2 1.09809 8.80791 1.1638 
323 2 0.198874 8.65424 1.9542 
325 2 0.993863 8.74765 2.52293 
326 2 1.87093 8.8232 2.09979 
521 2 2.86429 8.95566 0.986776 
523 2 2.93536 9.29608 1.89251 
524 2 3.52564 10.037 1.8473 
1261 3 1.20039 7.98666 1.60804 
1263 3 2.50859 8.17571 1.70161 
565 2 3.49637 11.1592 2.33007 
2284 5 2.0082 7.89046 2.83588 
327 2 1.10083 8.6691 3.49556 
2331 6 3.098 8.29675 2.75324 
2614 7 2.77338 10.1944 2.53594 
567 2 3.24001 10.8649 3.14639 
1442 3 4.83949 7.44715 1.85417 
522 2 3.81728 8.87164 1.21179 
525 2 3.63603 9.22322 2.52194 
526 2 4.24013 8.51601 2.32072 
1362 3 4.03831 10.262 2.64879 
2492 6 4.6726 9.24958 3.17696 
36 1 4.5 7.5 0 
37 1 4.5 9 0 
38 1 4.5 10.5 0 
46 1 6 7.5 0 
47 1 6 9 0 
48 1 6 10.5 0 
721 2 5.92828 9.02785 0.953209 
722 2 6.71962 9.29456 1.46192 
723 2 5.51388 9.4937 1.69398 
724 2 6.03413 10.2917 1.75418 
725 2 6.1573 9.51707 2.40748 
726 2 6.43494 8.61612 2.38965 
1361 3 4.77315 8.59995 1.26153 
1363 3 5.18623 8.44695 2.46563 
1461 3 7.28612 8.53603 1.18318 
1462 3 6.95221 10.2243 2.0092 
1463 3 6.90327 7.93825 2.92536 
2064 4 4.50132 9.45382 1.88518 
2071 4 5.69996 8.09956 1.58345 
2561 6 6.86497 11.0273 1.37483 
1875 4 7.47943 9.94606 1.14409 
2621 7 7.00547 7.68163 1.76275 
765 2 5.44609 11.7767 2.75467 
766 2 6.04283 11.0607 2.53089 
1483 3 7.00672 11.1811 2.52475 
688 2 5.04788 7.63496 3.25312 
1444 3 5.87722 8.18363 3.27124 
1998 4 4.14577 8.14512 3.44524 
2203 5 5.76402 7.43567 2.44865 
727 2 5.69741 9.30022 3.20973 
728 2 6.66207 9.11148 3.34732 
2155 4 5.18163 10.118 2.52876 
1564 3 7.10157 10.0727 3.03778 
2124 4 7.2536 9.21125 2.39595 
767 2 5.31703 11.1451 3.4411 
1831 4 4.25499 11.0189 3.3502 
2567 6 6.09773 10.3351 3.21104 
1542 3 8.60294 7.44904 2.06157 
56 1 7.5 7.5 0 
57 1 7.5 9 0 
58 1 7.5 10.5 0 
66 1 9 7.5 0 
67 1 9 9 0 
68 1 9 10.5 0 
76 1 10.5 7.5 0 
77 1 10.5 9 0 
78 1 10.5 10.5 0 
921 2 8.96022 8.77077 0.984295 
922 2 9.53097 8.07979 1.44704 
923 2 8.42087 8.27089 1.56309 
924 2 8.01404 9.13078 1.71006 
925 2 7.98164 8.32097 2.37079 
926 2 8.70498 8.98876 2.45884 
1562 3 7.98762 9.8978 2.22898 
1563 3 8.75849 9.02292 3.44705 
1774 4 7.83733 7.5585 1.11663 
1125 2 11.3153 9.08995 2.68049 
962 2 8.82351 11.1005 1.10912 
965 2 8.75436 11.3066 2.19084 
966 2 8.9664 10.3832 2.41287 
1581 3 9.67308 10.7995 1.48397 
1583 3 8.98921 10.0687 3.34676 
2215 5 7.90203 10.7654 1.70575 
1544 3 9.58246 8.30008 2.54349 
1644 3 10.6371 7.56629 2.96385 
927 2 7.79223 8.5458 3.302 
928 2 7.82316 9.49442 3.22826 
2096 4 8.70964 8.00462 3.15128 
2204 5 10.7189 8.02397 1.88817 
1127 2 10.7329 8.85618 3.39324 
967 2 8.04884 11.2208 2.79206 
324 2 14.8489 9.46027 2.22599 
1262 3 14.4722 9.53127 1.31101 
86 1 12 7.5 0 
87 1 12 9 0 
88 1 12 10.5 0 
96 1 13.5 7.5 0 
97 1 13.5 9 0 
98 1 13.5 10.5 0 
1121 2 12.1468 9.16718 1.00831 
1122 2 13.1245 9.097 1.09418 
1123 2 11.7348 8.99417 1.82593 
1124 2 12.2295 9.75388 2.13468 
1126 2 12.2581 8.94722 2.81002 
1661 3 13.3916 8.88113 1.9833 
1662 3 13.119 9.90178 1.82507 
1663 3 12.739 8.71831 3.59093 
1749 4 13.5344 10.8736 1.07795 
363 2 0.0405275 11.0682 1.53723 
365 2 14.7091 10.6925 2.34117 
366 2 13.9973 11.1133 2.90505 
1163 2 11.8119 11.3433 1.68547 
1165 2 12.1493 10.7968 2.39227 
1166 2 13.0184 10.5362 2.6789 
1683 3 13.0241 9.60212 2.88975 
2290 5 13.963 9.78276 2.48986 
1746 4 13.8961 9.17708 3.36279 
2455 6 11.6089 8.03198 2.89793 
367 2 14.8077 10.269 3.23487 
368 2 14.692 11.0274 3.77649 
1167 2 12.0277 10.3086 3.14607 
202 2 0.870952 14.5721 1.62861 
9 1 0 12 0 
10 1 0 13.5 0 
19 1 1.5 12 0 
20 1 1.5 13.5 0 
29 1 3 12 0 
30 1 3 13.5 0 
362 2 0.890677 11.8386 1.19518 
561 2 3.12006 12.0879 1.01724 
563 2 3.8059 11.6846 1.56869 
564 2 3.69055 12.4735 2.2005 
1739 4 0.245123 11.4061 3.10531 
2182 4 3.60821 13.7388 1.26075 
2607 7 3.18937 14.4919 1.89658 
568 2 3.573 11.7759 3.21823 
602 2 6.36894 14.4319 1.89431 
1301 3 4.24958 14.6613 1.60563 
562 2 3.93437 12.6629 1.15246 
566 2 4.30317 11.5996 2.5001 
1382 3 4.0135 13.359 2.20714 
2475 6 3.6388 14.942 3.31974 
39 1 4.5 12 0 
40 1 4.5 13.5 0 
49 1 6 12 0 
50 1 6 13.5 0 
761 2 6.04862 12.1517 1.01055 
762 2 6.98888 12.0478 1.16663 
763 2 5.58673 11.7969 1.78847 
764 2 6.41613 12.0329 2.2179 
1381 3 4.75215 12.2183 1.33421 
1383 3 4.57306 12.1066 3.23059 
1482 3 7.05526 12.7054 1.9752 
1889 4 7.86767 11.9732 2.01887 
1982 4 5.96841 12.9015 1.80242 
1983 4 4.96021 14.1977 2.51419 
2108 4 4.76483 13.5368 1.20207 
2438 6 5.75107 12.7297 2.93971 
2008 4 7.2469 12.19 2.89855 
1952 4 4.95779 12.8191 2.31594 
2551 6 6.38032 11.4197 3.41069 
1481 3 7.88438 11.6433 1.02563 
1876 4 8.04792 12.7493 1.34942 
59 1 7.5 12 0 
60 1 7.5 13.5 0 
69 1 9 12 0 
70 1 9 13.5 0 
79 1 10.5 12 0 
80 1 10.5 13.5 0 
961 2 8.999 12.085 1.02768 
963 2 9.43634 11.8805 1.81856 
964 2 8.85843 12.5722 2.06596 
1582 3 8.12985 13.0828 2.43384 
1744 4 10.6936 14.7601 1.15879 
968 2 8.43462 12.082 2.96883 
361 2 14.9477 11.8488 0.966857 
364 2 14.2028 11.4179 1.7857 
1281 3 0.596809 11.9661 2.05761 
1282 3 14.0704 12.0897 2.44058 
1283 3 13.5776 11.3133 3.72635 
89 1 12 12 0 
90 1 12 13.5 0 
99 1 13.5 12 0 
100 1 13.5 13.5 0 
1161 2 11.7478 12.0142 1.00647 
1162 2 12.7087 11.7456 1.16568 
1164 2 12.2471 12.0382 2.14621 
1681 3 13.0585 11.283 1.91452 
1682 3 13.1354 12.3246 1.88357 
2185 4 12.4059 12.889 1.24746 
2596 7 12.887 11.6444 2.86505 
209 2 1.25401 1.90856 4.09854 
210 2 2.00355 2.39025 3.90741 
211 2 1.52854 2.25413 4.98611 
212 2 2.37866 2.65473 4.94183 
247 2 1.03014 3.59433 3.50016 
249 2 1.48644 3.35085 4.29168 
250 2 2.46668 3.41667 4.26984 
409 2 3.20331 1.44979 3.82066 
411 2 3.40341 1.78399 4.71601 
1205 3 2.9634 2.48142 4.06681 
1206 3 2.14764 3.0826 5.72584 
1225 3 2.69709 3.70173 5.13235 
213 2 1.61817 2.00042 5.88383 
214 2 2.49988 1.78049 5.65954 
215 2 2.12695 2.34246 6.61079 
216 2 2.60981 3.15543 6.7822 
413 2 3.72395 1.71654 5.64115 
1207 3 2.8392 1.41984 6.48349 
1308 3 3.65395 3.23248 6.66153 
1874 4 3.09679 2.6083 5.92942 
1881 4 3.38606 2.84801 4.95339 
2106 4 2.20335 1.31474 4.00849 
410 2 4.12986 1.33298 3.94126 
412 2 4.14695 2.29573 4.40681 
449 2 3.76349 3.29085 4.04389 
450 2 4.53135 3.05728 3.53677 
1306 3 4.96789 2.76515 4.53059 
1759 4 3.74645 2.2734 3.32177 
607 2 6.63741 0.244149 3.25278 
608 2 6.2586 1.10106 3.44091 
609 2 6.99978 0.188497 4.1728 
610 2 6.41988 0.91685 4.5856 
611 2 7.11689 14.97 5.1344 
612 2 6.31645 0.27839 5.57803 
648 2 6.29972 3.92964 3.65644 
649 2 5.94872 2.88306 4.13385 
650 2 6.79834 2.89112 3.76118 
651 2 5.91767 3.05036 5.10769 
652 2 6.83265 3.36937 5.17738 
1305 3 3.96224 0.809051 4.71403 
1325 3 5.20001 2.30906 3.46447 
1405 3 7.02363 1.33 5.17948 
1406 3 5.74816 1.02015 5.40819 
1425 3 7.56335 2.33189 3.54728 
1763 4 4.90039 1.71152 5.02397 
1786 4 6.86624 1.5243 6.3864 
1926 4 5.96574 1.82099 4.22487 
2479 6 6.75411 2.37292 4.66878 
414 2 4.33982 2.48481 5.52231 
415 2 4.06991 1.52551 6.50957 
416 2 4.27479 2.48739 6.5592 
453 2 4.49887 3.57039 5.8158 
455 2 4.76423 3.40054 6.68731 
653 2 6.06748 3.28429 6.04829 
654 2 6.69543 2.55697 6.07022 
1307 3 5.22923 2.49136 5.86026 
2205 5 7.14936 1.53252 4.11206 
2253 5 5.16006 1.84168 6.75748 
807 2 7.87352 0.839086 3.54896 
808 2 8.21011 1.62727 3.94943 
809 2 7.84329 0.629612 4.50352 
810 2 8.76346 0.661654 4.55041 
811 2 7.77871 0.625144 5.48137 
812 2 7.9531 1.35121 6.10988 
849 2 8.5908 2.86602 4.13559 
850 2 8.96593 3.67664 4.00083 
851 2 8.54798 3.14439 5.05389 
1504 3 8.0266 1.8552 4.87583 
1505 3 9.70497 0.710569 4.39365 
1506 3 7.70544 2.24444 6.42014 
1794 4 9.08281 1.68232 4.50011 
1921 4 7.73428 3.68782 3.53438 
2047 4 9.66242 2.80435 3.91344 
2344 6 9.52169 3.02167 6.01394 
2401 6 8.77874 1.20894 5.4674 
2404 6 9.46995 2.57841 4.9362 
1009 2 10.872 1.08479 4.00456 
1010 2 11.2627 1.61884 4.74883 
1011 2 10.7831 0.611684 4.89958 
1012 2 10.2688 1.40059 4.94248 
1049 2 10.3766 3.4892 4.29552 
1050 2 11.3143 3.16777 4.4333 
1051 2 10.3228 3.35134 5.24736 
1052 2 11.23 3.72463 5.27335 
1604 3 10.0569 1.69471 3.97529 
1605 3 11.1067 1.4033 5.70897 
1606 3 10.204 2.03407 5.68245 
1707 4 10.5476 2.43484 4.57693 
2192 4 11.2488 2.17275 3.78346 
2618 7 11.2837 2.55206 5.28829 
2366 6 9.4046 14.4295 6.25859 
2374 6 9.50502 0.37039 5.39607 
1427 3 7.50023 2.49323 5.42487 
813 2 8.34603 0.0500573 5.99424 
814 2 9.1098 0.533585 6.40999 
816 2 7.93414 0.389695 7.04586 
853 2 8.0109 3.41005 5.81673 
855 2 7.72443 3.68015 6.67375 
1507 3 9.20321 1.46005 6.57752 
2201 5 8.64203 2.34337 5.76738 
2496 6 8.7102 2.9189 6.75238 
1013 2 10.528 0.168626 5.73483 
1014 2 11.1579 0.532251 6.41266 
1053 2 10.6029 2.91217 6.05826 
1054 2 11.5146 3.21949 6.20627 
2013 4 9.75061 2.31913 6.92058 
2151 4 10.6953 1.88052 6.57354 
2291 5 9.96578 1.02089 6.04671 
2231 5 7.64488 2.95682 4.53552 
1625 3 12.1249 2.64409 4.47111 
251 2 1.60965 3.79962 5.11034 
252 2 2.13187 4.51526 4.77852 
2558 6 3.71082 4.02447 5.44197 
289 2 1.62915 5.33404 4.379 
290 2 2.18171 6.01303 4.01342 
291 2 1.96988 5.71292 5.18108 
292 2 1.91322 6.61637 4.96612 
487 2 3.18631 6.11057 3.62371 
490 2 3.61497 7.20854 4.55616 
492 2 3.41869 6.84931 5.61927 
1224 3 2.06925 4.3424 3.67071 
1226 3 2.61227 4.89199 5.53484 
1244 3 1.23448 7.35841 3.85091 
1245 3 2.83469 6.17925 4.74042 
1346 3 3.35894 7.32261 6.44063 
2051 4 3.41057 4.33011 4.49238 
2354 6 2.42114 7.0465 3.99895 
2385 6 1.3594 4.88782 5.45003 
2407 6 0.947832 5.77591 5.1922 
253 2 1.90722 4.11458 5.98123 
254 2 2.83852 3.98448 6.11724 
256 2 2.46274 4.93035 6.86975 
1227 3 3.70354 4.21085 6.47437 
2240 5 2.29271 7.11148 5.98266 
293 2 1.94514 6.13996 5.99811 
294 2 2.85059 5.97138 5.83161 
295 2 2.386 6.24112 6.84597 
296 2 2.49745 7.17675 7.04696 
1228 3 1.66582 5.21323 6.42406 
1247 3 3.46348 6.2098 6.54308 
2019 4 3.49274 5.20613 4.94992 
2136 4 3.29207 5.13764 6.31754 
2608 7 2.73993 5.06642 4.07679 
2055 4 1.10885 4.33289 4.3664 
451 2 4.27869 3.45197 4.84613 
452 2 4.47615 4.42116 4.76731 
2154 4 4.27742 4.15253 3.76001 
1834 4 5.12448 4.9986 4.02067 
2239 5 5.27798 3.86059 4.1576 
2451 6 5.94381 5.16568 4.72455 
1766 4 6.91691 4.35594 5.70767 
489 2 3.80769 6.28319 4.36954 
491 2 3.99936 6.14011 5.29415 
1326 3 4.57015 5.40245 4.81762 
2312 6 3.91234 5.24982 3.97991 
689 2 4.66465 6.98901 4.22893 
691 2 5.06367 7.1292 5.09773 
1426 3 7.21038 3.93664 4.44065 
1445 3 5.86702 6.88104 4.50418 
2209 5 7.67599 4.81109 3.62773 
454 2 5.30027 3.9286 5.39563 
456 2 4.84765 4.3321 6.58653 
655 2 6.60893 3.79394 6.70334 
1327 3 6.0795 4.07416 4.84216 
493 2 4.45813 6.06194 6.0955 
494 2 4.40578 7.05271 6.21259 
495 2 4.52582 5.98682 7.05113 
2122 4 4.26381 5.03362 5.97181 
693 2 5.42324 6.78909 5.97774 
695 2 5.25321 6.92182 6.91903 
1447 3 6.26065 6.66284 6.70697 
1751 4 7.08725 7.38916 6.16378 
1967 4 6.35238 5.37121 5.68121 
1893 4 6.55634 6.64941 5.25504 
1543 3 9.67679 6.19034 3.94727 
852 2 8.07357 3.94013 4.81025 
1525 3 9.36637 3.8238 4.91682 
1859 4 9.18361 4.77232 5.31583 
2538 6 8.66807 4.6364 4.25046 
1048 2 10.9029 4.15121 3.59994 
1767 4 10.2405 4.40627 5.67555 
1949 4 10.8484 4.46986 4.5964 
2196 4 9.8793 4.43062 4.10577 
889 2 8.50282 6.6949 3.81856 
890 2 9.18738 7.29814 4.13096 
891 2 8.1315 6.83467 4.70756 
1526 3 7.67893 4.83542 4.85313 
1545 3 9.2295 6.59036 4.74938 
1546 3 7.96637 7.50909 5.58054 
2317 6 10.3272 7.5168 4.21793 
2506 6 9.61156 6.07553 5.68912 
1089 2 10.9064 6.11641 4.00452 
1090 2 11.5797 6.7247 3.59357 
1091 2 10.3674 6.44966 4.71515 
1092 2 11.1218 7.04777 4.7422 
1624 3 11.1024 5.09445 3.72047 
2102 4 11.7952 5.37702 4.61009 
2361 6 10.5067 5.06792 6.42344 
2545 6 9.90508 5.3806 4.75182 
2653 8 10.7028 3.92548 6.45826 
854 2 8.30106 4.34811 5.77246 
856 2 7.67241 4.6787 6.64782 
1527 3 9.15565 3.8967 5.91524 
893 2 8.41841 6.49556 5.54449 
894 2 8.08394 5.71556 5.98191 
895 2 8.03936 6.74457 6.39235 
896 2 8.75672 7.36675 6.21719 
1547 3 8.16039 5.83441 6.93603 
2271 5 10.0132 5.21416 3.35137 
2606 7 8.71016 5.63194 4.86805 
2610 7 9.04885 6.45584 6.52784 
1093 2 10.6514 6.64175 5.63704 
1094 2 11.484 6.18474 5.41152 
1095 2 10.409 6.17796 6.44879 
1096 2 10.767 7.00303 6.80544 
1647 3 10.7972 5.50326 5.36587 
2021 4 9.79843 7.33163 6.35364 
2024 4 11.4753 4.65987 5.79197 
2150 4 10.0201 7.3626 5.19296 
2016 4 9.25654 5.34255 6.33157 
1626 3 12.171 4.0458 5.26931 
1645 3 11.9112 6.4506 4.47883 
1646 3 11.7337 7.46737 5.36101 
2379 6 11.8285 4.28806 3.94106 
2165 4 11.395 5.64162 6.46544 
1246 3 2.36515 7.50629 4.96672 
1344 3 3.05426 7.94774 3.75032 
328 2 0.533702 9.37839 3.46114 
329 2 1.08187 8.34815 4.38852 
330 2 1.48634 9.22711 4.33943 
331 2 1.46647 7.97736 5.18624 
332 2 0.602628 8.38668 5.39242 
527 2 3.45019 8.98749 3.43289 
529 2 3.15624 9.06369 4.33182 
530 2 3.61101 9.83263 4.64579 
531 2 3.39988 8.88944 5.27127 
532 2 2.99759 9.71058 5.50841 
1264 3 0.230729 9.03411 4.31782 
1265 3 2.1321 9.12521 3.61991 
1266 3 0.640434 8.24811 6.36228 
1364 3 2.84724 9.9263 3.58239 
1366 3 2.51958 10.5411 5.53078 
1795 4 2.34542 8.65004 4.83177 
2463 6 2.42262 9.90266 4.61515 
2663 8 2.72075 8.04338 5.82844 
370 2 0.299423 10.1143 4.41815 
569 2 3.32459 10.8257 4.13279 
571 2 3.35576 10.7108 5.11212 
1285 3 0.685643 9.59756 5.11329 
2113 4 2.4594 11.3551 4.85613 
2523 6 2.77118 10.2805 6.54253 
333 2 1.69997 8.33335 6.07211 
334 2 1.15055 9.11643 5.89311 
335 2 1.61583 8.79467 6.96081 
336 2 1.1379 9.60322 6.78643 
535 2 3.04351 8.28542 6.91643 
1267 3 1.71667 9.78176 5.53355 
1950 4 2.42447 9.28574 6.39536 
2229 5 2.01794 8.11211 3.90795 
1915 4 1.38811 10.3314 4.55874 
374 2 0.30735 9.77726 6.09985 
1287 3 0.644907 10.5305 5.63723 
1712 4 0.400265 10.8242 7.1103 
1843 4 0.339825 11.2424 4.72486 
2279 5 1.77705 10.7607 6.22171 
690 2 5.35642 7.66556 4.17792 
692 2 5.74171 7.85083 5.15771 
1345 3 4.13566 8.02943 4.53342 
1446 3 5.03924 7.93101 5.83001 
528 2 3.80518 9.87773 3.59555 
729 2 5.37988 8.89016 4.064 
730 2 6.27793 8.72582 4.39823 
731 2 5.35293 8.78072 5.05408 
732 2 5.89473 9.52092 5.2383 
1365 3 4.22911 10.1174 5.30573 
1464 3 7.17947 9.65722 4.06346 
1465 3 7.18357 8.62992 4.2131 
1466 3 6.45472 10.2912 5.1128 
1860 4 4.89125 10.178 3.50176 
1985 4 6.59534 7.67155 4.15345 
2539 6 5.02049 9.6644 5.8492 
2609 7 4.23604 9.05518 4.18496 
570 2 4.23522 10.5994 4.35009 
769 2 5.34862 10.7521 4.38544 
770 2 6.26241 11.0297 4.40611 
771 2 5.31563 10.5019 5.30716 
1385 3 4.43617 11.219 5.08754 
969 2 7.5415 11.5271 3.62548 
971 2 7.47191 11.2088 4.51783 
694 2 6.00563 7.51987 6.2299 
696 2 5.40525 7.85696 7.15243 
1347 3 4.29284 7.892 6.7014 
2598 7 3.94527 7.85336 5.68736 
533 2 3.57123 8.63114 6.21798 
534 2 3.91596 9.48966 6.53742 
2260 5 7.53717 7.31515 3.70821 
1883 4 4.43909 8.83817 5.54741 
1986 4 4.73796 8.85361 6.70253 
733 2 5.58667 8.81329 5.97862 
734 2 6.39368 8.58838 5.57697 
735 2 5.66231 9.54254 6.6124 
736 2 6.46363 9.62692 6.07881 
738 2 7.18649 9.51841 6.98299 
1367 3 4.62855 9.91691 7.0112 
1467 3 6.93597 7.92658 5.17196 
1468 3 7.17829 10.2706 5.87901 
1836 4 4.88938 9.74191 4.64627 
1925 4 7.04825 9.40069 5.06652 
2246 5 6.02 9.8684 4.16336 
2377 6 6.3972 8.75734 6.74746 
2100 4 7.2895 8.60583 6.09236 
573 2 3.68592 10.6633 5.98045 
575 2 3.87204 10.5843 6.91524 
773 2 5.89907 10.5323 6.02115 
774 2 6.46448 11.2251 5.73772 
775 2 5.59806 10.5653 6.90753 
1387 3 4.61085 11.3232 6.94002 
2592 7 6.68986 10.7071 6.83541 
2282 5 4.77604 10.6341 6.1706 
892 2 8.68906 7.59486 4.91954 
929 2 8.12258 8.10443 4.07535 
930 2 8.96918 8.48365 4.37021 
931 2 7.96342 8.45945 4.93135 
932 2 8.63781 9.13287 5.12362 
1565 3 9.8261 8.366 4.80635 
1566 3 7.89781 9.45342 5.66392 
1849 4 9.84889 8.27854 3.7275 
2070 4 9.78837 9.36002 3.6801 
2571 6 8.96862 9.9032 4.51107 
1128 2 10.9342 9.81665 3.45654 
1129 2 10.7595 8.5826 4.29737 
1131 2 10.8256 8.03277 5.1521 
1132 2 10.6196 8.95555 5.36259 
1664 3 10.8 9.58964 4.35007 
1666 3 10.2235 9.66423 5.89888 
1585 3 8.57798 11.0074 4.51874 
1957 4 7.90599 10.5178 3.76095 
1971 4 9.21768 11.3095 3.34127 
2430 6 7.81884 10.1935 4.73171 
2218 5 8.48306 10.5771 5.48258 
1548 3 8.09974 7.83229 6.72792 
933 2 8.27889 8.4546 5.87484 
934 2 9.16583 8.25866 5.63037 
935 2 8.35177 9.03052 6.6665 
936 2 8.36118 9.9733 6.45761 
1567 3 10.0544 8.36825 5.96148 
1803 4 9.74281 9.35871 4.80974 
1911 4 10.0669 9.05333 6.93495 
2109 4 8.12405 9.29879 4.23774 
2153 4 9.32849 9.20288 6.16836 
2321 6 9.09647 8.28436 6.6739 
1133 2 10.9431 7.77033 6.11792 
1135 2 10.823 8.26129 6.91639 
1136 2 11.0869 9.11124 6.5933 
973 2 7.53901 11.1311 5.473 
975 2 7.77174 11.0819 6.39478 
1130 2 11.2673 7.85825 3.91686 
1665 3 12.1852 7.66425 3.80476 
1858 4 11.6691 8.76009 3.74118 
2318 6 12.5069 8.8346 5.68517 
2445 6 13.0699 8.56791 4.71243 
369 2 14.567 9.73539 4.03175 
371 2 14.6179 9.58003 5.01451 
372 2 14.647 10.4957 5.22054 
1284 3 14.5293 11.819 4.25363 
1286 3 13.8679 10.9965 5.50322 
1168 2 12.6534 10.8314 3.73301 
1169 2 12.0699 9.68756 3.87942 
1170 2 13.0339 9.72756 3.938 
1171 2 12.3504 9.52808 4.78484 
1172 2 12.5914 10.4653 4.73629 
1684 3 11.7702 10.7322 4.13832 
1685 3 13.7263 9.33339 4.5389 
1686 3 12.6696 10.9288 5.53833 
2350 6 13.2683 11.3994 4.70464 
2473 6 13.7609 10.26 3.44808 
2256 5 13.8395 10.4889 4.55646 
2584 7 11.2483 9.74522 5.63253 
1687 3 13.3241 9.75535 6.3722 
1740 4 13.4382 10.8064 6.46451 
1134 2 11.5039 8.49167 5.8348 
1667 3 11.9716 8.35212 6.66991 
1668 3 11.2134 10.0597 6.69269 
2615 7 12.1175 9.40482 6.52171 
373 2 14.354 9.73766 5.98209 
375 2 14.4981 9.40995 6.8694 
376 2 14.3116 10.3601 6.87628 
2211 5 11.9682 8.51522 4.84662 
1741 4 11.3539 10.9137 5.98713 
1173 2 12.4595 9.85871 5.65235 
1174 2 13.3334 9.60721 5.43852 
1175 2 12.3701 10.3811 6.40886 
1176 2 12.5788 11.3554 6.4235 
572 2 3.4546 11.6421 5.12251 
1384 3 3.46153 12.0337 4.10676 
1386 3 3.01642 11.4532 5.98632 
768 2 5.49443 11.9221 3.98587 
772 2 5.41214 11.485 5.29647 
1484 3 5.32163 12.3991 4.80092 
1485 3 6.35516 11.9634 4.73171 
1486 3 5.89559 12.1438 5.72281 
972 2 7.44982 12.1618 4.54864 
1586 3 7.03005 12.5982 5.3544 
613 2 7.27923 14.9505 6.13853 
615 2 6.7395 14.8145 6.92045 
2262 5 4.48634 11.8917 4.26623 
574 2 4.09226 11.573 6.13534 
776 2 5.77325 11.4771 6.72364 
1487 3 6.85435 11.7145 6.50043 
2484 6 5.02161 12.1932 6.26428 
2234 5 6.51029 12.3869 3.84425 
2224 5 6.20299 12.4766 6.61738 
970 2 8.38462 11.7983 4.01358 
1584 3 7.9581 12.6623 3.60983 
614 2 7.56064 14.1019 6.3421 
1407 3 7.76246 13.2902 5.84286 
815 2 8.41266 14.5775 6.83927 
1015 2 10.412 14.6289 6.58506 
1018 2 11.1149 13.7088 6.59216 
2237 5 8.67047 13.6518 6.24729 
1979 4 8.62726 12.7993 5.56778 
974 2 8.01611 11.9623 5.43468 
976 2 7.99726 12.008 6.43362 
1587 3 8.93549 11.711 5.48563 
1588 3 8.91586 12.1947 6.4993 
1688 3 11.7941 11.8958 6.34997 
2276 5 12.2516 12.872 6.18425 
217 2 2.29365 1.97703 7.46714 
218 2 3.24538 2.20934 7.20178 
219 2 2.34486 2.05343 8.46912 
220 2 1.79165 2.85027 8.42011 
259 2 2.53708 3.67748 8.66227 
1208 3 2.59747 3.05787 7.76201 
1209 3 3.32318 1.70857 8.03782 
2261 5 1.66537 3.12439 7.09994 
1845 4 3.66051 2.8927 7.90921 
1210 3 1.30598 2.15477 7.90534 
221 2 2.72554 2.64008 9.08966 
222 2 3.19069 1.82957 9.22111 
224 2 2.98599 2.9779 10.1245 
263 2 2.09071 3.71386 10.4196 
1211 3 3.45933 1.78835 10.1352 
223 2 2.31413 2.24517 9.87426 
417 2 4.37023 1.43627 7.41176 
418 2 4.67669 2.38423 7.51235 
419 2 4.64917 1.26282 8.33551 
420 2 4.86449 2.13574 8.62079 
656 2 5.69169 3.63175 7.10113 
657 2 6.78995 3.73203 7.68806 
659 2 6.87495 3.49061 8.59783 
1309 3 5.53024 2.00699 7.86355 
2597 7 5.63272 2.96278 8.47044 
2062 4 4.55529 3.18057 8.29393 
462 2 3.91559 2.5912 9.01188 
422 2 4.41576 0.471195 9.20931 
1310 3 5.45074 2.27536 9.36587 
421 2 5.17246 1.16319 9.13234 
661 2 6.40762 3.00833 9.30488 
1410 3 5.93896 0.137506 9.24414 
2325 6 4.80433 3.06239 9.30114 
662 2 7.27764 3.12291 9.6617 
1331 3 4.35132 1.88066 9.53539 
463 2 4.14108 3.63222 9.90948 
423 2 4.90698 0.897076 10.0094 
663 2 6.0304 2.81568 10.2108 
2482 6 4.71053 14.7088 10.3112 
1333 3 5.15573 3.3198 10.3151 
424 2 5.25499 1.7713 10.2346 
858 2 8.27087 3.31171 7.90855 
1508 3 7.52212 1.23413 7.15388 
1529 3 9.1407 2.84136 7.78558 
1872 4 8.55889 1.83842 7.29418 
1016 2 9.81853 0.0267292 7.17644 
1055 2 10.5801 3.01045 7.0149 
1056 2 9.7311 3.45431 6.91815 
1057 2 10.3416 3.11992 7.96079 
1059 2 10.1839 3.33403 8.89043 
1607 3 11.335 0.631949 7.38753 
1608 3 10.3309 0.811982 7.07167 
2095 4 11.2388 3.23785 8.66302 
2426 6 9.1171 3.4129 8.69438 
1870 4 8.11194 3.56394 8.89877 
1061 2 10.1605 3.68136 9.81447 
1062 2 11.1149 3.48067 9.8715 
1531 3 8.83635 3.67828 9.78861 
1627 3 11.8992 2.76268 6.97615 
255 2 1.96567 4.14462 6.92191 
257 2 2.03819 3.97479 7.86957 
258 2 2.72446 4.57876 8.06964 
260 2 1.68072 3.73406 9.04132 
459 2 3.59929 3.86627 8.1164 
1229 3 2.15247 4.7115 8.78852 
297 2 2.3122 6.04488 7.73726 
298 2 3.10923 5.49004 7.49978 
299 2 1.88446 5.70868 8.52478 
300 2 1.4509 6.47651 8.85352 
1248 3 2.29287 7.30906 7.99952 
1249 3 3.16926 5.56819 8.42979 
2046 4 1.2728 6.3885 6.97031 
1776 4 2.62095 6.80036 8.98269 
2432 6 3.32958 6.64109 7.86451 
2661 8 1.83004 6.70737 9.84925 
2002 4 3.04949 3.96724 7.24511 
1901 4 1.77618 5.0881 7.59661 
2140 4 3.16296 4.49382 8.98349 
2286 5 1.13696 4.98104 8.5305 
301 2 1.86098 5.43882 9.41793 
302 2 2.70567 5.87337 9.39482 
2387 6 3.78407 6.97089 9.61879 
1250 3 0.823389 5.8363 9.14697 
261 2 2.54012 3.72651 9.58696 
1230 3 1.55168 4.41757 9.66738 
262 2 2.53526 4.69425 9.75426 
2273 5 0.955829 5.22138 10.1564 
1452 3 6.72151 8.21148 10.4673 
1769 4 3.28369 7.4995 10.4571 
1251 3 2.85951 6.47922 10.0649 
303 2 2.03455 5.58037 10.3703 
457 2 4.22585 3.6812 7.42229 
458 2 5.03092 4.1124 7.74256 
460 2 3.8393 4.77584 8.27237 
658 2 6.60775 4.70396 7.71386 
660 2 6.01758 3.96594 8.40934 
1329 3 4.91786 4.13781 8.74 
1429 3 6.73068 5.57024 8.26777 
496 2 4.20867 6.8659 7.25294 
497 2 4.44192 6.01082 8.05254 
498 2 4.45895 6.95419 8.20692 
499 2 3.85781 6.19421 8.77249 
500 2 4.69373 6.54536 9.19569 
1328 3 4.20094 4.70886 7.20462 
2384 6 3.44565 7.47871 8.69322 
697 2 5.76191 7.03539 7.69924 
698 2 6.68099 6.88514 7.76286 
699 2 5.5359 6.8506 8.58423 
1349 3 4.67711 7.67275 8.85856 
1428 3 5.86376 4.55381 7.03658 
1449 3 7.23303 7.68999 7.79452 
1919 4 5.65427 5.79865 6.55498 
2075 4 5.90419 5.90538 7.68489 
2158 4 5.26476 5.71051 8.74177 
1990 4 5.11203 5.1472 7.54677 
1330 3 4.37402 5.16357 8.99682 
1430 3 5.75602 4.86327 8.37833 
702 2 6.87302 6.79584 8.8752 
1351 3 5.61272 5.80181 9.82085 
461 2 3.77712 3.56102 9.04848 
2141 4 5.71406 3.87253 9.54585 
1350 3 5.05342 6.93084 9.98524 
701 2 6.04985 6.66155 9.36341 
1750 4 5.53164 4.92239 9.31486 
501 2 3.78669 5.92494 9.68348 
1431 3 6.76408 3.9504 9.70236 
502 2 4.66933 5.8368 9.99433 
2541 6 7.17015 7.25729 10.0911 
464 2 4.80011 4.34669 9.99559 
1898 4 7.15082 6.05944 9.6184 
1954 4 6.52497 5.14349 9.57769 
2277 5 3.84381 4.81837 9.8311 
703 2 6.35993 6.51333 10.2834 