ITEM: TIMESTEP
1000
ITEM: NUMBER OF ATOMS
1600
ITEM: BOX BOUNDS pp pp ff
0 20
0 20
0 62
ITEM: ATOMS id type x y z 
1 1 0 0 0 
2 1 0 2 0 
11 1 2 0 0 
12 1 2 2 0 
201 2 19.9893 0.170721 1.04416 
202 2 0.207228 0.275718 1.98934 
203 2 0.243015 0.166667 2.99447 
979 3 0.095637 19.2349 1.07734 
21 1 4 0 0 
22 1 4 2 0 
31 1 6 0 0 
32 1 6 2 0 
41 1 8 0 0 
42 1 8 2 0 
1345 3 8.45856 19.4421 3.32797 
51 1 10 0 0 
52 1 10 2 0 
61 1 12 0 0 
62 1 12 2 0 
652 2 12.0115 19.6931 1.93166 
1381 3 11.5159 19.5905 1.45218 
1652 3 12.5145 0.237474 3.42554 
71 1 14 0 0 
72 1 14 2 0 
81 1 16 0 0 
82 1 16 2 0 
1011 3 15.6045 0.686614 1.15784 
1079 3 16.4444 0.45639 3.46759 
91 1 18 0 0 
92 1 18 2 0 
1484 3 20.0095 19.7429 2.62375 
3 1 0 4 0 
4 1 0 6 0 
13 1 2 4 0 
14 1 2 6 0 
231 2 19.7746 4.04654 1.04425 
232 2 19.8935 4.09661 2.03297 
233 2 19.6724 4.25125 2.99741 
1517 3 19.6519 3.77125 2.56305 
1293 3 4.74222 4.45501 1.53645 
1585 3 3.34999 3.72124 1.12983 
23 1 4 4 0 
24 1 4 6 0 
33 1 6 4 0 
34 1 6 6 0 
381 2 3.98245 4.0242 1.01765 
382 2 4.21284 4.05271 1.93388 
383 2 4.34851 3.75451 2.89598 
1529 3 3.7284 4.66443 1.70866 
1144 3 3.8708 3.48085 3.81403 
1450 3 4.75407 4.01447 2.36087 
43 1 8 4 0 
44 1 8 6 0 
531 2 8.03082 4.11198 0.983965 
532 2 7.95878 3.8977 1.86818 
533 2 8.01368 3.8696 2.87152 
1058 3 7.58957 4.41356 2.38174 
1313 3 8.70054 3.72508 3.14823 
1470 3 8.43353 3.69825 1.41459 
53 1 10 4 0 
54 1 10 6 0 
63 1 12 4 0 
64 1 12 6 0 
681 2 11.9382 4.11918 1.01374 
682 2 11.8931 3.8223 1.97226 
683 2 11.8408 3.88895 2.97559 
1303 3 11.7391 3.59091 1.29671 
1174 3 12.6486 3.89802 1.18081 
1360 3 15.9324 3.40508 1.82323 
73 1 14 4 0 
74 1 14 6 0 
83 1 16 4 0 
84 1 16 6 0 
831 2 16.106 3.9599 1.03008 
832 2 16.2487 3.97352 1.98831 
833 2 16.3036 4.04675 2.95916 
1473 3 16.7559 4.10844 1.13376 
1514 3 16.8842 3.9871 3.32127 
1155 3 15.9817 3.69571 3.44145 
1546 3 0.24726 2.65345 1.13748 
93 1 18 4 0 
94 1 18 6 0 
1209 3 19.792 4.5234 1.50212 
5 1 0 8 0 
15 1 2 8 0 
1506 3 19.4329 8.52681 1.49341 
1456 3 19.2564 8.23002 3.58592 
25 1 4 8 0 
35 1 6 8 0 
411 2 4.03016 7.96935 1.0583 
412 2 4.15221 7.95078 2.04304 
413 2 4.02514 7.88132 2.98457 
1078 3 3.50803 7.93406 2.69747 
1281 3 4.62079 7.93654 1.47016 
1611 3 3.88731 7.66381 4.59686 
1604 3 7.71413 8.41215 1.45824 
45 1 8 8 0 
561 2 8.02947 7.99292 0.996779 
562 2 8.19868 8.1929 1.99953 
563 2 8.03698 8.10933 2.97098 
1036 3 10.3556 9.75391 1.92586 
1568 3 12.4562 7.78642 1.41494 
55 1 10 8 0 
65 1 12 8 0 
711 2 11.8838 8.09594 1.10036 
712 2 11.9373 7.90653 2.13085 
713 2 12.0187 7.98912 3.09584 
1489 3 12.1872 7.52168 2.59612 
1606 3 11.5379 7.97577 1.62046 
1494 3 12.8182 7.76806 3.37317 
75 1 14 8 0 
85 1 16 8 0 
861 2 16.0891 7.89284 1.0445 
862 2 15.9522 8.02618 1.9561 
863 2 15.8548 8.04434 2.90289 
1179 3 15.2954 8.05712 3.57354 
261 2 19.9856 8.17785 1.05696 
262 2 19.9483 8.32771 2.06292 
263 2 19.8191 8.48426 3.13936 
95 1 18 8 0 
1083 3 19.5321 8.86448 2.58611 
1454 3 0.377938 7.69747 0.999436 
6 1 0 10 0 
7 1 0 12 0 
16 1 2 10 0 
17 1 2 12 0 
1658 3 0.0706782 11.1924 1.88693 
26 1 4 10 0 
27 1 4 12 0 
36 1 6 10 0 
37 1 6 12 0 
441 2 3.90461 11.9412 1.03014 
442 2 3.98383 12.0719 2.02765 
443 2 4.11221 12.1553 2.98032 
1262 3 4.18704 12.57 1.53785 
1421 3 3.70203 12.3447 3.44875 
1622 3 4.44974 12.6347 2.55578 
46 1 8 10 0 
47 1 8 12 0 
591 2 8.06618 11.7824 1.00988 
592 2 8.05391 11.7273 1.99825 
593 2 7.92372 11.7291 2.96752 
1261 3 8.16289 11.3267 2.48273 
1269 3 7.46424 11.6517 1.159 
1446 3 7.8783 12.499 1.91635 
56 1 10 10 0 
57 1 10 12 0 
66 1 12 10 0 
67 1 12 12 0 
741 2 11.9392 12.0212 1.05424 
742 2 12.1585 12.0894 2.04319 
743 2 12.159 12.2775 3.07195 
1106 3 11.8565 11.6303 1.5816 
1003 3 11.9507 13.0298 3.80003 
1298 3 11.8765 12.4939 2.56544 
76 1 14 10 0 
77 1 14 12 0 
86 1 16 10 0 
87 1 16 12 0 
891 2 15.983 11.9891 1.00233 
892 2 15.9524 11.9466 1.9758 
893 2 16.1306 11.7349 2.96181 
1207 3 15.9935 11.5078 2.40381 
1404 3 15.8846 11.3611 3.47422 
1337 3 16.416 12.2598 2.5273 
291 2 0.102316 11.9889 1.0004 
292 2 19.9609 11.8807 1.97 
293 2 19.9143 12.0558 2.96925 
96 1 18 10 0 
97 1 18 12 0 
8 1 0 14 0 
9 1 0 16 0 
18 1 2 14 0 
19 1 2 16 0 
1182 3 0.860742 16.6018 1.10548 
1073 3 19.5098 15.8348 3.53517 
28 1 4 14 0 
29 1 4 16 0 
38 1 6 14 0 
39 1 6 16 0 
471 2 4.09185 15.954 1.01797 
472 2 4.16928 16.0104 2.01177 
473 2 4.25229 15.877 3.03983 
1104 3 4.04642 15.5811 1.55189 
1413 3 5.83211 16.3049 1.07644 
1038 3 4.63034 15.85 1.32523 
1465 3 8.07795 15.2802 2.42025 
48 1 8 14 0 
49 1 8 16 0 
621 2 8.09504 16.03 1.00004 
622 2 7.97345 15.6911 1.90557 
623 2 8.01333 15.6678 2.96209 
1206 3 8.30287 15.5202 1.3636 
58 1 10 14 0 
59 1 10 16 0 
68 1 12 14 0 
69 1 12 16 0 
771 2 11.9195 16.0725 1.01973 
772 2 11.8958 16.1263 1.98699 
773 2 12.0391 16.2561 3.02416 
1134 3 11.7606 16.7365 1.21698 
1076 3 12.2172 15.5609 1.24274 
1130 3 12.4229 15.9186 3.48009 
78 1 14 14 0 
79 1 14 16 0 
88 1 16 14 0 
89 1 16 16 0 
921 2 16.1547 15.9921 1.02552 
922 2 16.158 15.9783 2.03252 
923 2 16.1977 16.0986 3.06151 
1143 3 15.4913 11.6404 1.38602 
1254 3 15.8675 16.5992 1.23291 
1154 3 16.7387 16.1489 1.34119 
1109 3 16.4625 15.65 3.48421 
1002 3 15.9748 16.4817 3.59584 
321 2 0.0508562 15.9063 1.04168 
322 2 0.0242527 16.1049 2.01905 
323 2 20.0005 16.1226 3.02528 
98 1 18 14 0 
99 1 18 16 0 
1428 3 0.000532316 16.4738 1.47794 
10 1 0 18 0 
20 1 2 18 0 
1551 3 0.289779 0.794024 2.82555 
351 2 3.94434 20.0003 1.06045 
352 2 4.14341 20.0122 2.0906 
353 2 4.07261 19.9696 3.18283 
1223 3 4.5086 19.7381 1.38272 
1240 3 4.4762 0.206246 2.66472 
30 1 4 18 0 
40 1 6 18 0 
1236 3 4.46496 19.4997 3.5547 
501 2 7.96004 19.9251 1.04651 
502 2 8.1039 19.826 2.04704 
503 2 7.90046 19.7017 3.03937 
50 1 8 18 0 
1139 3 8.21553 19.2725 1.09935 
1534 3 7.56568 19.8236 2.42277 
651 2 11.883 19.9068 0.990171 
653 2 12.1805 19.7882 2.87686 
60 1 10 18 0 
70 1 12 18 0 
983 3 11.6217 19.4309 3.18038 
1283 3 10.0662 16.4415 1.20559 
801 2 16.02 0.150712 1.0102 
802 2 16.0495 0.123065 1.98963 
803 2 16.0508 0.286329 3.03228 
80 1 14 18 0 
90 1 16 18 0 
1471 3 15.5928 19.9796 1.49565 
100 1 18 18 0 
1385 3 19.4078 16.7831 4.14622 
204 2 0.22878 0.163756 3.95824 
205 2 0.355794 0.0516982 4.95242 
206 2 0.380091 19.9252 5.92286 
207 2 0.112629 19.9448 6.8356 
978 3 19.7203 0.564266 3.18748 
1369 3 5.9163 1.57982 4.17349 
505 2 8.08819 19.6446 4.98757 
506 2 7.93684 19.7589 6.02549 
507 2 7.97735 19.8366 7.00707 
1169 3 7.63409 19.243 5.36414 
1698 3 7.65332 19.747 5.48474 
1691 3 7.50538 0.158201 7.37997 
1488 3 11.5389 19.5178 4.29898 
1239 3 15.8349 0.88174 6.21542 
1119 3 19.6911 0.310236 7.21988 
234 2 19.4903 4.30793 3.92734 
235 2 19.6813 4.26893 4.91806 
236 2 19.8208 4.1464 5.90997 
237 2 19.7556 3.8973 6.87749 
384 2 4.55854 3.78038 3.87459 
385 2 4.51203 3.76911 4.88292 
386 2 4.25764 3.8014 5.83654 
387 2 4.10394 3.70731 6.79102 
1667 3 4.82197 4.1363 4.32623 
1277 3 3.54548 3.33356 5.24569 
1219 3 4.73417 3.526 5.42328 
534 2 8.46473 4.12968 3.71515 
535 2 8.53778 3.78343 4.66299 
536 2 8.48003 3.77808 5.65851 
537 2 8.324 3.7901 6.63142 
1407 3 8.19258 3.25356 4.24747 
1016 3 8.14931 3.38651 5.18237 
684 2 12.019 3.99956 3.9582 
685 2 12.0284 3.81482 4.96232 
686 2 12.1481 3.73228 5.95525 
687 2 12.1644 3.60209 6.92073 
1023 3 11.7774 2.83098 4.47418 
1098 3 11.9338 4.1017 7.68001 
1085 3 11.7119 3.66027 7.33964 
834 2 16.477 3.9372 3.91578 
835 2 16.3948 3.99311 4.88484 
836 2 16.3424 3.92461 5.87023 
837 2 16.1238 4.14946 6.83495 
1683 3 16.598 3.38313 4.98762 
1343 3 13.8895 3.69978 4.16721 
1380 3 16.5851 4.38104 6.40697 
1390 3 16.1225 4.76391 7.18626 
1278 3 16.4228 4.39112 7.35309 
264 2 19.7688 8.39487 4.14683 
265 2 19.7861 8.29038 5.1466 
266 2 19.9948 8.0532 6.09939 
267 2 19.9622 7.9774 7.12397 
1525 3 0.330389 8.72705 4.87332 
414 2 3.76723 7.87206 3.94176 
415 2 3.91195 8.29234 4.86109 
416 2 3.89813 8.10848 5.90311 
417 2 3.99294 8.00995 6.87052 
1496 3 3.94331 9.16481 5.65434 
1561 3 3.68906 8.55083 6.48905 
1005 3 4.51259 8.10075 3.31482 
564 2 7.77625 7.84976 3.89812 
565 2 7.90625 8.05981 4.90153 
566 2 7.88313 8.04693 5.94791 
567 2 7.93553 8.1997 6.95646 
1093 3 7.65806 8.54352 6.47003 
1472 3 8.29585 7.69332 4.5056 
1624 3 8.22257 7.60058 7.16284 
969 3 8.21132 8.5281 5.33323 
714 2 11.9578 7.83737 4.06145 
715 2 12.0489 7.90559 5.05113 
716 2 12.1465 7.61012 5.98703 
717 2 12.2938 7.43727 6.94639 
1241 3 12.3933 7.54092 4.55575 
718 2 12.2446 7.31886 7.93125 
1607 3 11.7528 7.04983 5.94807 
864 2 15.8977 8.04803 3.90608 
865 2 15.7902 7.93445 4.84856 
866 2 15.7421 8.16137 5.87843 
867 2 15.5167 8.19563 6.83298 
1661 3 16.132 8.01743 5.38613 
1564 3 15.5824 7.64951 6.43375 
1569 3 15.1007 8.32996 6.3284 
1365 3 16.0125 8.67498 7.0777 
1041 3 18.8997 8.84786 5.21156 
1051 3 19.5618 12.6663 7.30561 
1168 3 3.58617 12.4161 4.08771 
444 2 4.3993 12.2606 3.94215 
445 2 4.62707 12.1146 4.90256 
446 2 4.46352 11.8329 5.89952 
447 2 4.33808 11.7277 6.88003 
1387 3 5.04813 12.0133 5.57317 
1173 3 4.76318 11.3877 6.20306 
1419 3 4.74258 11.5486 5.31647 
1210 3 4.32507 12.2822 6.49132 
594 2 7.97254 11.9666 3.9101 
595 2 8.28631 11.9932 4.91294 
596 2 8.23052 11.997 5.96217 
597 2 8.09544 11.9913 6.93915 
1429 3 8.64442 11.5986 6.46445 
1017 3 8.89727 11.7468 4.48749 
744 2 12.0359 12.3805 4.0322 
745 2 11.939 12.3304 5.029 
746 2 11.9418 12.3814 6.03784 
747 2 11.9508 12.4905 6.98085 
1498 3 11.5878 12.4949 4.41257 
1196 3 12.3084 12.6875 6.43369 
1522 3 11.994 11.7256 5.98826 
894 2 16.2541 11.608 3.99726 
895 2 16.0933 11.5852 4.94995 
896 2 16.2493 11.5754 5.96962 
897 2 16.1935 11.7316 6.97514 
1576 3 16.0979 10.7799 4.66189 
1326 3 15.8591 12.2648 7.18002 
1151 3 16.1902 11.9811 5.44678 
294 2 19.6886 11.9916 3.9276 
295 2 19.792 11.9716 4.9364 
296 2 19.5223 12.0098 5.88247 
297 2 19.481 12.1272 6.83596 
1577 3 19.5678 11.6027 7.46626 
1099 3 -0.0138718 11.6484 4.40591 
1234 3 0.0451679 15.7662 6.39811 
474 2 4.30335 15.6232 4.03073 
475 2 4.35609 15.6088 4.97013 
476 2 4.42794 15.6014 5.94407 
477 2 4.67857 15.6641 6.98504 
1672 3 4.78207 15.9887 4.62249 
1371 3 4.02771 15.2276 4.5495 
1349 3 4.30612 15.3519 6.53336 
624 2 8.29658 15.893 3.85758 
625 2 8.44379 15.9281 4.83436 
626 2 8.54989 15.7263 5.7615 
627 2 8.4475 15.6589 6.71609 
1055 3 8.51179 15.4159 4.27058 
1100 3 8.00306 15.6664 6.0912 
1137 3 8.11535 15.6562 7.29723 
1062 3 8.25398 16.2522 5.35574 
774 2 12.0867 16.1841 3.99141 
775 2 11.9196 16.5341 4.91604 
776 2 11.7162 16.4909 5.86996 
777 2 11.7255 16.4908 6.92284 
1211 3 12.7516 16.844 4.52422 
1501 3 11.5058 16.1033 6.40084 
1286 3 11.5743 17.1091 5.13501 
924 2 16.1741 16.0579 4.03935 
925 2 16.2825 16.2002 4.98055 
926 2 16.1827 16.0501 5.92064 
927 2 16.1027 15.9646 6.87298 
951 3 16.5275 16.4401 7.22405 
959 3 17.0799 15.5925 7.14856 
324 2 19.9927 16.0278 4.00965 
325 2 19.7859 15.9651 4.98327 
326 2 19.5291 16.0396 5.93595 
327 2 19.7388 16.1148 6.93427 
1201 3 19.8012 19.716 4.5283 
354 2 4.27152 19.8539 4.12365 
355 2 4.25517 19.9042 5.08539 
356 2 4.44954 19.7759 6.02459 
357 2 4.37794 19.6517 7.01712 
1276 3 4.38431 0.59155 4.11544 
1687 3 4.68063 19.1311 5.82477 
504 2 8.0607 19.5382 3.97885 
982 3 7.54174 19.9108 6.58325 
654 2 12.1128 19.538 3.88993 
655 2 12.0156 19.6087 4.85593 
656 2 12.0113 19.8407 5.80662 
657 2 12.0818 19.7619 6.79616 
1537 3 12.4674 19.7446 4.46612 
1152 3 12.8893 19.7319 6.30708 
804 2 16.1234 0.309051 4.03943 
805 2 16.1551 0.394933 5.03982 
806 2 16.1739 0.435169 5.99153 
807 2 16.1161 0.330706 7.05925 
1013 3 19.0823 17.2318 5.30552 
208 2 0.181963 0.127985 7.83526 
209 2 0.0921272 19.9845 8.80045 
210 2 0.195032 0.131438 9.74286 
211 2 0.296559 0.0472066 10.7449 
1531 3 0.570487 0.603149 7.56857 
1400 3 19.7276 19.7706 9.93427 
1040 3 2.99662 1.75598 11.5102 
1288 3 3.77693 19.6852 8.43094 
508 2 8.03301 -0.0024716 7.96866 
509 2 8.0864 0.126589 8.94717 
510 2 8.21734 0.026642 9.93978 
511 2 8.11033 0.2032 10.9116 
1356 3 8.31499 0.643981 9.38909 
1597 3 8.56041 0.44931 11.3711 
1352 3 9.44365 1.29681 5.19554 
1476 3 11.9086 0.622656 10.0413 
1441 3 12.8164 0.270791 11.2832 
1253 3 16.568 0.233156 6.45846 
1284 3 15.6925 0.929204 7.39863 
1377 3 19.7075 0.672646 9.5095 
238 2 -0.0230256 3.873 7.79519 
239 2 19.9711 3.57174 8.76789 
240 2 0.157938 3.5638 9.69296 
241 2 0.27817 3.49384 10.6562 
981 3 1.01097 3.8226 9.35366 
1255 3 0.348703 3.08788 8.40557 
388 2 3.90946 3.69993 7.76563 
389 2 3.95155 3.75684 8.72462 
390 2 4.05967 3.92748 9.69644 
391 2 4.08062 3.94087 10.6875 
1035 3 4.375 3.85202 11.1754 
392 2 3.88798 4.0584 11.6302 
1306 3 4.1805 3.31585 8.30941 
1197 3 5.07258 6.7862 6.01456 
538 2 8.2385 3.95861 7.55774 
539 2 8.12681 3.75993 8.5371 
540 2 8.14044 3.79702 9.48525 
541 2 8.00156 3.70188 10.4474 
1024 3 8.14136 3.31519 9.00903 
1626 3 8.49393 3.38468 7.99813 
542 2 7.86451 3.64303 11.3836 
1636 3 7.87359 4.23032 10.0113 
1267 3 7.55505 3.61791 9.91141 
688 2 12.1188 3.54104 7.91014 
689 2 11.8806 3.68778 8.85408 
690 2 11.8516 3.76321 9.78454 
691 2 11.7448 4.01634 10.6993 
1256 3 12.0645 3.14063 9.16942 
1437 3 11.3237 3.92419 10.1877 
838 2 15.99 4.28499 7.8072 
839 2 16.2072 4.53857 8.80089 
840 2 16.2949 4.47719 9.7741 
841 2 16.1289 4.56596 10.7304 
1689 3 16.1137 5.87474 9.1015 
1107 3 16.6968 4.52737 10.4006 
1480 3 15.9518 4.02287 10.2747 
1653 3 19.8433 4.13571 8.36342 
268 2 0.0405742 7.93886 8.10066 
269 2 19.9193 8.0788 9.04091 
270 2 0.0757022 7.78451 9.936 
271 2 20.0318 7.72472 10.9642 
1367 3 0.394754 8.2916 9.676 
418 2 3.82822 7.96481 7.89777 
419 2 3.80538 7.88832 8.95967 
420 2 3.80668 7.49001 9.83884 
421 2 3.63342 7.50954 10.8449 
1528 3 4.29991 8.28138 9.39061 
568 2 7.88647 7.96791 7.91036 
569 2 7.92296 7.82908 8.89488 
570 2 8.00042 7.86732 9.90559 
571 2 7.93018 7.53015 10.7966 
991 3 7.47484 7.45431 9.63403 
1431 3 8.04026 8.22685 10.5766 
1181 3 8.46499 7.35721 11.2287 
719 2 12.1918 7.2407 8.86219 
720 2 12.0323 7.46315 9.81246 
721 2 12.1781 7.49154 10.7541 
1464 3 11.4821 7.17348 10.2104 
722 2 12.1568 7.75367 11.7015 
1184 3 12.1149 6.70148 7.74686 
1467 3 12.0703 7.70692 8.45381 
868 2 15.4969 8.25701 7.78674 
869 2 15.4907 8.3418 8.71354 
870 2 15.7603 8.41737 9.64262 
871 2 15.5804 8.51432 10.5602 
1482 3 15.5733 8.96396 9.18983 
1092 3 16.89 7.72855 11.1604 
1053 3 15.3934 8.03414 10.0802 
958 3 0.381194 7.64511 9.10074 
1030 3 19.6132 11.5798 9.21376 
1559 3 0.44629 12.2311 10.9929 
992 3 4.24725 10.9967 8.02332 
448 2 4.46929 11.5582 7.85101 
449 2 4.435 11.7518 8.81723 
450 2 4.46289 11.6483 9.8153 
451 2 4.38739 11.7125 10.7907 
1287 3 4.22958 11.2833 11.3758 
1487 3 4.47126 12.1633 8.17159 
1671 3 4.59508 11.3526 9.28586 
598 2 8.02451 11.9315 7.90136 
599 2 8.20316 11.9294 8.84143 
600 2 8.2481 12.0681 9.79695 
601 2 8.32022 12.2684 10.6843 
1007 3 8.62765 12.4374 8.91429 
1052 3 7.84883 12.5958 6.37629 
1311 3 7.473 11.9838 9.14527 
1331 3 7.79479 11.8796 10.247 
1260 3 8.72098 11.2729 8.98623 
748 2 11.7239 12.5748 7.95667 
749 2 11.6223 12.7502 9.01419 
750 2 11.5066 12.8213 9.99714 
751 2 11.5758 12.7614 10.9647 
1302 3 10.9003 13.165 10.1512 
1043 3 10.9509 12.7717 11.1994 
1251 3 11.2339 12.5948 8.49578 
898 2 16.3073 11.7609 7.99768 
899 2 16.2768 11.8165 8.9813 
900 2 16.1551 11.7377 9.99103 
901 2 16.0952 11.7724 10.9952 
1563 3 16.7322 11.1479 7.84552 
1087 3 15.9241 11.4623 8.49647 
298 2 19.6035 12.159 7.76571 
299 2 19.7257 12.11 8.78117 
300 2 19.6776 11.9936 9.77305 
301 2 19.9303 12.0453 10.7286 
1171 3 19.0441 12.0368 8.8806 
1071 3 19.6314 11.669 8.23065 
1614 3 19.5971 11.7532 11.4342 
330 2 19.902 15.8058 9.93744 
331 2 19.8656 16.0017 10.8847 
1376 3 19.4478 16.0188 9.24401 
1423 3 0.426127 15.0828 10.286 
1368 3 19.37 16.2404 11.2977 
478 2 4.5148 15.965 7.90575 
479 2 4.55238 16.2139 8.89757 
480 2 4.85108 16.2787 9.82106 
481 2 4.94594 16.3412 10.8498 
1512 3 5.1541 15.8036 9.21835 
1028 3 5.40973 16.4188 10.3981 
1505 3 5.32868 16.0588 11.3255 
628 2 8.65065 15.5223 7.6645 
629 2 8.63887 15.7299 8.59532 
630 2 8.46199 15.6235 9.53645 
631 2 8.43481 15.6087 10.4727 
1359 3 8.84047 15.4321 10.0002 
1593 3 8.60736 15.1855 8.22442 
1447 3 8.83786 16.1468 9.31152 
778 2 11.7468 16.2309 7.92199 
779 2 11.755 16.1232 8.9419 
780 2 11.9371 16.1026 9.88836 
781 2 11.847 16.1341 10.8913 
1315 3 11.4546 16.4442 9.69695 
1634 3 12.2055 16.2829 7.51638 
1273 3 11.4445 16.0324 10.378 
928 2 16.0605 15.9665 7.89155 
929 2 16.0449 16.0623 8.87777 
930 2 16.0068 15.9444 9.89168 
931 2 16.0503 16.0796 10.8653 
1124 3 15.9122 15.6264 8.43324 
1601 3 16.17 16.9352 8.5443 
1391 3 15.7806 15.5292 10.6795 
1271 3 16.4678 16.1616 10.2731 
1275 3 14.4322 16.1259 10.5567 
328 2 19.783 16.1514 7.97007 
329 2 0.019735 16.0034 8.9543 
1350 3 0.407759 15.7105 9.45082 
1056 3 17.9158 15.1048 10.9796 
1543 3 19.7578 19.8057 11.4526 
358 2 4.27625 19.7982 7.95464 
359 2 4.28768 19.722 8.92888 
360 2 4.31067 19.7822 9.92977 
361 2 4.26916 19.887 10.9551 
1574 3 4.4831 0.177746 9.40321 
1621 3 3.78141 19.932 11.4039 
1396 3 3.83852 19.4312 7.45837 
1205 3 7.58955 19.9969 8.45649 
1468 3 8.28816 19.6261 11.299 
658 2 12.3222 19.8432 7.74789 
659 2 12.2103 19.8107 8.74915 
660 2 12.2461 0.047895 9.69248 
661 2 12.1702 0.285149 10.6245 
1547 3 11.9318 19.7722 10.1556 
808 2 15.8938 0.279938 8.08137 
809 2 15.8008 0.340542 9.09831 
810 2 15.8575 0.297876 10.1727 
811 2 15.7566 0.0856406 11.1573 
1230 3 15.9245 19.8955 8.58049 
1495 3 15.6303 19.9179 9.57977 
1150 3 16.5713 19.7066 10.4247 
212 2 0.266108 0.156889 11.7432 
213 2 0.0891208 0.334737 12.6859 
1685 3 0.580541 19.9267 13.8838 
214 2 19.9133 0.0890536 13.6325 
215 2 19.7926 0.151308 14.5834 
1458 3 4.99469 19.5634 12.6871 
953 3 4.84045 0.210695 15.2172 
512 2 8.15322 0.113524 11.8778 
513 2 8.13957 0.078448 12.9077 
514 2 8.16953 0.0325479 13.8813 
1199 3 8.62023 0.232897 14.8187 
515 2 8.08076 19.8006 14.8171 
246 2 19.9329 3.63766 15.3484 
1091 3 11.5224 1.11299 12.5221 
1427 3 15.5799 0.760815 13.4924 
1146 3 14.848 0.449766 14.4301 
1066 3 19.8833 0.642277 11.3356 
1692 3 0.396853 3.03807 12.8391 
242 2 0.533313 3.6117 11.5849 
243 2 0.476596 3.70739 12.5341 
1225 3 1.31405 3.54122 11.801 
244 2 0.384082 3.24674 13.4112 
245 2 0.0585299 3.24908 14.3957 
393 2 4.06164 4.29326 12.6544 
1127 3 3.81364 4.60335 11.946 
1320 3 4.57997 4.13452 11.6407 
394 2 4.22933 3.99707 13.6283 
1334 3 3.98113 3.64594 13.0964 
395 2 4.47494 3.85371 14.5523 
1300 3 4.43205 3.4027 13.942 
1131 3 3.97061 3.53789 14.9351 
1399 3 16.2911 7.68681 14.671 
543 2 8.03817 3.64955 12.3087 
994 3 7.75005 2.81816 12.2061 
544 2 8.14764 3.51048 13.2968 
1406 3 8.15307 3.17797 13.7962 
1486 3 8.51347 3.15126 12.8216 
545 2 8.03152 3.5154 14.2958 
957 3 8.12633 4.19763 12.7776 
1158 3 10.2539 5.74234 9.14776 
546 2 7.71573 3.45736 15.2256 
692 2 11.7503 3.99634 11.6486 
693 2 11.7789 4.10534 12.6241 
1451 3 11.4047 4.36646 13.0965 
694 2 11.5562 3.95514 13.6232 
695 2 11.6436 4.08897 14.6 
842 2 16.0893 4.72351 11.7009 
843 2 16.1522 4.65213 12.7137 
1176 3 15.8685 4.93283 13.2482 
844 2 16.1011 4.56915 13.7138 
845 2 15.9641 4.24785 14.6583 
1025 3 16.2593 4.44027 15.2645 
1153 3 19.965 3.29501 12.0139 
1378 3 19.9808 2.82748 13.7802 
1460 3 17.1618 4.31413 13.6233 
272 2 0.235701 7.73092 11.9005 
273 2 19.9137 7.55611 12.8075 
1346 3 0.131737 7.11154 11.8941 
274 2 19.8726 7.69066 13.8241 
1226 3 0.699369 7.88613 10.9117 
275 2 0.0216168 7.84684 14.8003 
1122 3 19.61 7.46444 14.4469 
1656 3 1.22154 6.13867 12.2215 
1619 3 4.14899 7.87854 12.2157 
422 2 3.46149 7.54629 11.8131 
423 2 3.7569 7.55862 12.7715 
1116 3 2.8393 7.75036 11.7196 
424 2 3.61654 7.58343 13.7093 
425 2 3.79447 7.83552 14.6296 
1497 3 3.28684 8.02621 14.9572 
1639 3 8.54957 7.85982 12.1402 
572 2 8.05034 7.6212 11.7868 
573 2 8.05698 7.83237 12.743 
1609 3 8.11978 7.24309 12.3238 
574 2 8.10028 8.0352 13.7395 
1270 3 8.38742 8.42911 14.1234 
575 2 8.06646 7.98388 14.7329 
1364 3 7.46999 8.07118 13.3331 
723 2 11.9429 8.23637 12.5318 
954 3 12.7783 7.50079 10.8638 
1668 3 12.0702 7.53001 12.4162 
1237 3 12.3557 8.70313 11.9255 
724 2 11.8386 8.06276 13.4522 
1185 3 11.5937 7.4172 13.701 
725 2 11.802 7.67791 14.3497 
1463 3 11.692 8.3564 14.6763 
876 2 16.0774 8.03579 15.3195 
1665 3 15.5259 7.93001 11.5773 
872 2 15.7073 8.5506 11.4846 
873 2 15.6605 8.43719 12.4521 
874 2 15.8108 8.38999 13.3995 
875 2 16.0309 8.27294 14.3982 
1339 3 15.6061 9.13753 11.9038 
1147 3 15.8454 8.8954 14.3746 
1319 3 19.2638 6.93592 11.4923 
1570 3 19.6724 7.85649 12.278 
1544 3 0.74893 7.76822 12.9652 
303 2 0.221458 11.5332 12.5712 
989 3 19.8824 10.8586 14.506 
1096 3 2.85538 12.9488 14.4404 
452 2 4.26973 11.8767 11.8082 
453 2 4.27616 11.9279 12.7706 
1591 3 3.85317 12.1461 12.2881 
454 2 4.2364 12.0336 13.7645 
455 2 4.36795 11.7232 14.7083 
971 3 3.83427 11.3114 14.7265 
602 2 8.27776 12.372 11.685 
603 2 8.26401 12.6006 12.6726 
1558 3 8.15792 13.0138 11.8067 
604 2 8.05726 12.714 13.647 
1557 3 8.66282 12.7226 11.0601 
605 2 8.16502 12.6317 14.5978 
1344 3 8.05889 13.1225 15.0333 
752 2 11.5663 12.6665 11.9727 
753 2 11.5479 12.4674 12.931 
754 2 11.6475 12.4753 13.8966 
1204 3 11.3411 13.1233 12.7887 
1341 3 11.5505 11.9599 12.1812 
1227 3 11.958 12.7185 13.316 
755 2 11.5771 12.4649 14.8554 
1194 3 12.0736 12.3544 15.2515 
815 2 15.3264 0.621374 14.8763 
902 2 15.9738 12.0739 11.9193 
903 2 15.8028 12.3144 12.8455 
1426 3 16.3944 12.2083 12.4937 
904 2 15.7927 12.3803 13.8682 
905 2 15.7464 12.4884 14.8645 
1120 3 15.4509 11.8926 14.1222 
1108 3 19.4208 0.492355 12.6992 
302 2 0.223989 11.8747 11.6881 
304 2 0.315523 11.4774 13.541 
1696 3 19.7037 11.3735 13.9622 
1394 3 0.804977 11.7304 12.7516 
305 2 0.201302 11.3946 14.5178 
332 2 19.8894 15.9264 11.8692 
333 2 19.8335 16.0209 12.9157 
334 2 19.797 16.1248 13.8677 
1195 3 19.9394 16.5317 13.3064 
335 2 19.7229 16.3685 14.8465 
1132 3 19.5079 16.8075 15.4597 
482 2 4.913 16.3515 11.82 
483 2 5.02176 16.4728 12.7518 
1309 3 4.50342 15.9414 12.4085 
484 2 4.76013 16.4439 13.6936 
1590 3 4.79284 17.0031 13.0041 
485 2 4.96249 16.4579 14.6911 
1603 3 4.35381 16.2107 14.8009 
1638 3 5.34833 16.8214 13.963 
632 2 8.31001 15.5977 11.4997 
633 2 7.8876 15.6862 12.3913 
634 2 7.81853 15.4991 13.3273 
1191 3 8.24068 15.2152 11.9908 
1434 3 7.70172 15.7838 11.7421 
635 2 8.04812 15.6755 14.2662 
1477 3 8.31508 15.582 13.69 
636 2 7.81104 15.8285 15.2231 
783 2 11.3963 16.1843 12.8491 
782 2 11.5725 16.0535 11.8713 
956 3 11.9602 15.5136 13.0417 
784 2 11.6165 16.1828 13.8142 
1620 3 11.9328 15.8088 12.4793 
785 2 11.3637 16.1997 14.7658 
1336 3 11.6524 15.4844 15.3559 
1518 3 11.0654 16.541 15.4765 
1008 3 12.0466 16.216 15.2636 
998 3 12.0326 18.6432 10.8819 
1128 3 15.4176 16.5531 13.7327 
933 2 16.0102 15.9726 12.8071 
932 2 15.8558 16.0506 11.8269 
934 2 16.067 16.0528 13.8002 
1049 3 16.3246 16.8348 13.4326 
935 2 16.0559 15.8736 14.74 
1388 3 19.5396 15.8807 15.2492 
362 2 4.4572 19.9162 11.9256 
363 2 4.603 0.0511639 12.8721 
364 2 4.64825 19.9663 13.878 
365 2 4.75086 19.7626 14.7879 
1188 3 4.84828 18.9189 13.8249 
1443 3 8.62513 19.5856 12.3547 
1659 3 12.638 0.703769 13.1979 
662 2 12.238 0.252995 11.5932 
663 2 12.0135 0.3045 12.53 
664 2 12.0463 0.45928 13.4687 
1507 3 11.9614 19.7628 13.5075 
665 2 12.0984 0.0369231 14.2993 
812 2 15.8213 19.9554 12.1143 
813 2 15.7733 0.194122 13.0252 
814 2 15.264 0.318566 13.9014 
1587 3 15.1077 0.255073 13.1071 
1566 3 19.6622 4.3031 15.0789 
1135 3 10.8769 8.02614 14.6061 
666 2 12.0343 19.9015 15.2421 
1424 3 7.65353 15.4235 14.6813 
726 2 11.5613 7.86597 15.291 
1067 3 11.5527 3.40689 14.97 
1524 3 8.34446 14.8853 14.7477 
1235 3 16.9167 0.314732 14.9827 
1307 3 16.4322 15.2384 14.969 
1259 3 19.1382 11.0994 15.3471 
1373 3 15.3907 13.0062 15.2365 
1200 3 7.22728 16.1245 15.4199 
216 2 19.7584 0.214109 15.5254 
217 2 19.5999 0.182583 16.4564 
218 2 19.3651 0.473686 17.3568 
219 2 19.6539 0.583111 18.3026 
366 2 4.82214 19.7332 15.7876 
1032 3 4.17978 0.0559449 18.0669 
1060 3 3.94899 19.1241 17.5114 
516 2 8.15813 19.9009 15.7532 
517 2 8.06118 19.8714 16.7013 
518 2 7.84407 19.5866 17.5995 
519 2 7.94572 19.7492 18.5714 
1608 3 7.38534 19.2007 17.8046 
1089 3 9.42567 2.65919 15.388 
1247 3 8.26081 0.319637 18.8381 
1478 3 11.4348 19.8108 17.4189 
818 2 15.5149 0.649936 17.7798 
396 2 4.32038 3.71244 15.506 
1178 3 14.8609 0.84444 17.9303 
980 3 19.3706 19.8367 15.9082 
1111 3 14.621 0.112798 27.0648 
247 2 19.8371 3.82669 16.3327 
248 2 19.7377 3.88709 17.2738 
249 2 19.7979 3.73736 18.2282 
756 2 11.603 12.4004 15.8115 
1631 3 19.2429 3.81728 16.71 
1688 3 0.212703 4.00829 17.7276 
397 2 4.16224 3.71851 16.5384 
398 2 4.13631 3.78861 17.5751 
399 2 4.2345 3.77035 18.5244 
400 2 4.44047 3.96469 19.4359 
1009 3 4.02946 4.17373 16.943 
1395 3 3.83754 3.23195 17.9277 
1129 3 4.1245 4.38665 18.2954 
547 2 7.59513 3.69485 16.1702 
548 2 7.38816 3.78006 17.1259 
549 2 7.4595 4.42441 17.8441 
550 2 7.43442 4.76994 18.8067 
1492 3 7.90025 3.29842 16.9273 
1263 3 7.48509 4.38797 17.2123 
1663 3 7.17767 3.36769 15.5895 
1397 3 7.97102 6.49023 17.2436 
696 2 11.5553 3.92057 15.5602 
697 2 11.587 3.82137 16.5453 
698 2 11.4693 3.91395 17.5099 
699 2 11.3676 3.81602 18.5034 
1445 3 13.0121 3.28285 29.8915 
1567 3 10.9507 2.1493 17.8295 
1592 3 11.6724 3.49203 16.043 
1554 3 10.8834 4.14771 17.1218 
846 2 15.9838 4.01745 15.6854 
847 2 15.901 3.72799 16.5643 
848 2 15.9753 3.93811 17.5511 
849 2 16.1067 3.93583 18.5169 
1420 3 15.4824 3.99525 16.0963 
1018 3 16.6365 3.75159 18.7986 
1101 3 15.7622 3.33122 15.8117 
1594 3 15.2757 3.79717 17.4325 
1015 3 16.5788 3.54932 18.0644 
1094 3 16.6822 4.96799 16.5918 
1020 3 19.7364 4.46156 16.621 
1142 3 19.3305 3.64922 18.7972 
276 2 0.024418 7.84226 15.7675 
277 2 19.8147 7.81898 16.8143 
278 2 19.7642 7.67602 17.7744 
279 2 19.6613 7.9755 18.7313 
1651 3 0.0594979 7.58754 18.3646 
906 2 15.7845 12.2404 15.8145 
427 2 3.81995 7.89016 16.6154 
428 2 4.16814 7.88769 17.5235 
429 2 3.86131 7.82261 18.4661 
430 2 3.70529 7.7599 19.4376 
999 3 3.88817 8.42001 16.9486 
1166 3 3.49296 8.34379 17.6147 
1643 3 3.24701 7.7941 16.1963 
1409 3 4.36947 7.62051 16.7397 
576 2 8.18324 8.08185 15.6966 
577 2 8.03116 8.02492 16.661 
578 2 8.03997 8.31017 17.6138 
579 2 7.73356 8.51974 18.5381 
1291 3 7.33639 8.41839 17.8093 
1673 3 8.18735 8.11319 18.2044 
1629 3 8.38153 8.43714 16.2785 
1375 3 7.77482 7.65127 16.2046 
727 2 11.8181 7.97069 16.2044 
728 2 12.0669 8.19921 17.1128 
729 2 12.0308 8.15598 18.0774 
1289 3 12.4105 7.55588 18.6138 
730 2 12.0784 8.0022 19.0426 
426 2 3.8446 7.94732 15.6241 
1680 3 12.3254 8.00462 15.6345 
1001 3 11.107 8.00235 15.8121 
1086 3 12.0177 7.58223 16.8681 
1216 3 11.7614 8.55154 16.5692 
786 2 11.5757 16.1542 15.7573 
877 2 16.0858 8.167 16.2915 
878 2 15.8441 8.01113 17.2273 
879 2 16.2957 8.35933 18.0252 
1105 3 16.0706 8.61072 15.701 
1029 3 16.4198 7.87199 16.971 
936 2 16.2625 15.8563 15.7133 
1562 3 16.1005 8.64097 17.3482 
306 2 0.173337 11.2698 15.53 
456 2 4.11732 11.796 15.6368 
457 2 4.08151 11.9893 16.6094 
458 2 3.95214 12.1343 17.5262 
459 2 4.30675 11.9007 18.4557 
1014 3 4.65922 12.2016 15.8444 
1379 3 3.58856 11.6939 17.7954 
1545 3 3.50539 12.1788 16.506 
1264 3 4.51152 11.5861 16.9602 
606 2 8.26489 12.6067 15.605 
607 2 8.46786 12.5779 16.5884 
608 2 8.43684 12.3689 17.5536 
609 2 8.34793 12.189 18.5318 
1401 3 8.54112 12.0305 16.968 
1438 3 8.80095 12.6032 15.9625 
757 2 11.8269 12.504 16.7576 
758 2 12.0384 12.4609 17.7318 
759 2 12.1411 12.224 18.6676 
760 2 12.4103 12.0385 19.5492 
1461 3 11.0628 11.5599 15.7991 
1031 3 11.7317 11.0792 18.9627 
907 2 15.7008 12.3252 16.8289 
908 2 15.5588 12.1692 17.7323 
909 2 15.7421 12.2219 18.6713 
910 2 15.7817 12.4265 19.6041 
1054 3 14.7366 12.1921 17.5705 
1193 3 15.9316 11.6805 15.501 
1363 3 17.0409 12.6521 17.0091 
379 2 3.41215 0.399883 27.5328 
961 3 19.6678 5.9033 29.1089 
307 2 0.0624582 11.4702 16.5159 
308 2 19.9736 11.7431 17.4679 
309 2 0.00979478 11.8054 18.468 
1192 3 19.6215 11.2819 15.9047 
1565 3 0.212032 16.8441 15.5088 
336 2 19.9378 16.3801 15.8268 
337 2 0.0619958 16.3464 16.7762 
338 2 19.671 16.2029 17.6811 
339 2 19.5713 16.0145 18.6645 
486 2 4.62202 16.4684 15.5565 
487 2 4.82726 16.3271 16.4862 
488 2 4.95889 16.1416 17.4201 
489 2 4.84763 15.9395 18.3761 
1392 3 4.46993 15.8978 16.8053 
975 3 5.41004 16.3347 15.8885 
1082 3 7.17468 15.6681 16.5378 
637 2 7.49744 16.0583 16.1005 
638 2 7.54971 15.9023 17.0757 
639 2 7.69898 15.8751 18.0067 
1483 3 3.44505 0.74184 26.9211 
640 2 7.79336 15.6161 18.9417 
965 3 9.9652 3.9927 27.7413 
1148 3 8.26008 15.7628 18.287 
1323 3 7.16764 15.8552 18.4447 
1183 3 16.1068 13.8412 28.6526 
1679 3 9.2048 12.9679 17.9619 
787 2 11.8125 16.1235 16.7069 
788 2 11.8494 16.3408 17.6148 
789 2 11.9258 16.4872 18.5635 
790 2 12.0948 16.6229 19.5061 
1700 3 11.3329 16.6337 17.1636 
1644 3 12.098 15.8948 16.2026 
1430 3 12.4202 16.1592 17.0729 
1064 3 11.9519 17.0939 18.9427 
830 2 14.5636 19.9023 27.8764 
937 2 16.2509 16.0338 16.6548 
938 2 15.8137 16.2147 17.4905 
939 2 15.6951 16.2949 18.4517 
940 2 15.7954 16.5429 19.3503 
1553 3 2.05366 9.74282 30.2487 
1329 3 15.6812 16.4194 16.7907 
1674 3 16.2478 16.7348 18.5519 
1026 3 15.2898 16.7009 18.8883 
988 3 19.106 15.7025 19.0991 
1068 3 19.9171 0.535725 17.6398 
367 2 4.60452 19.7974 16.7424 
368 2 4.5336 19.5396 17.6951 
369 2 4.1618 19.6054 18.5651 
952 3 4.71264 0.324338 16.1848 
977 3 4.43493 19.0831 16.9005 
1156 3 3.73191 19.6051 19.1082 
1366 3 8.15754 18.9977 17.2235 
1077 3 8.46374 19.398 15.4853 
667 2 11.9467 19.8302 16.1605 
668 2 12.0472 19.7809 17.1211 
669 2 11.6143 19.5203 17.9548 
1556 3 12.0745 19.3266 15.6873 
1625 3 11.4537 18.9497 18.4799 
816 2 15.1994 0.35032 15.8341 
817 2 15.4904 0.644249 16.73 
819 2 15.4982 0.333775 18.6803 
1353 3 15.3261 0.000319301 17.7984 
1440 3 17.4594 16.9418 18.6011 
1536 3 19.7791 0.992594 18.7961 
220 2 19.7005 0.526946 19.2781 
221 2 19.7168 0.462141 20.3029 
222 2 19.8102 0.772461 21.2109 