ITEM: TIMESTEP
1000
ITEM: NUMBER OF ATOMS
1120
ITEM: BOX BOUNDS pp pp ff
0 15
0 15
0 22
ITEM: ATOMS id type x y z 
1 1 0 0 0 
2 1 0 1.5 0 
3 1 0 3 0 
11 1 1.5 0 0 
12 1 1.5 1.5 0 
13 1 1.5 3 0 
21 1 3 0 0 
22 1 3 1.5 0 
23 1 3 3 0 
202 2 0.392921 0.380397 1.76787 
206 2 14.8824 0.931934 2.51929 
221 2 0.158298 2.92862 0.982481 
222 2 1.0011 3.05074 1.4397 
785 3 2.32233 7.38871 4.31209 
304 2 1.98427 1.19948 1.01764 
306 2 2.6052 1.53011 2.47245 
321 2 2.97021 3.06663 1.03442 
322 2 3.09602 4.02333 1.05876 
323 2 2.00116 2.98755 1.2661 
325 2 1.75367 3.3932 2.10576 
326 2 2.68463 3.61848 2.04083 
711 3 1.20141 2.2024 1.08703 
713 3 0.107349 3.1672 2.03525 
752 3 2.45685 2.05187 1.21397 
1002 4 1.61287 1.89392 2.04972 
1064 4 1.82424 2.90606 2.98175 
1070 4 0.384645 1.88563 1.82621 
703 3 0.180091 1.82111 2.82088 
763 3 3.02695 3.54984 2.91108 
308 2 1.28327 1.69213 3.20411 
1154 4 2.95896 0.0724875 2.47197 
501 2 8.90306 0.114298 0.976713 
307 2 1.03885 1.08379 2.46216 
701 3 0.938348 1.09526 1.38956 
753 3 2.66547 2.50406 2.36539 
305 2 1.98293 0.826618 2.31096 
303 2 2.42911 0.523155 1.52098 
31 1 4.5 0 0 
32 1 4.5 1.5 0 
33 1 4.5 3 0 
41 1 6 0 0 
42 1 6 1.5 0 
43 1 6 3 0 
404 2 6.68085 1.68904 1.14668 
421 2 6.06439 2.84084 1.00985 
422 2 6.99108 2.681 1.19246 
423 2 5.8231 2.11471 1.61587 
424 2 6.14837 2.73954 2.20285 
425 2 5.34791 1.65993 2.36915 
426 2 6.26916 1.79097 2.64786 
812 3 6.62944 2.86281 2.98132 
427 2 5.16601 1.70924 3.27766 
428 2 5.65285 2.49738 3.05332 
617 2 12.2437 0.222732 6.49854 
1155 4 13.1898 6.74267 3.67797 
201 2 -0.0239561 0.0140863 0.96774 
407 2 5.96067 0.634602 2.83279 
405 2 6.14165 0.851959 1.90361 
403 2 5.85611 1.21276 1.07073 
406 2 6.98073 1.18282 2.13931 
802 3 7.65263 1.67753 1.37595 
811 3 7.03757 2.25495 2.05959 
813 3 7.10109 1.81183 3.12094 
51 1 7.5 0 0 
52 1 7.5 1.5 0 
53 1 7.5 3 0 
61 1 9 0 0 
62 1 9 1.5 0 
63 1 9 3 0 
71 1 10.5 0 0 
72 1 10.5 1.5 0 
73 1 10.5 3 0 
502 2 9.64458 0.674192 1.17503 
504 2 8.9644 1.60682 1.00451 
277 2 14.2794 7.02414 6.07136 
521 2 9.05437 2.92919 0.977955 
522 2 9.97356 3.14345 1.20811 
523 2 8.21767 2.72283 1.43031 
524 2 8.7895 3.19889 2.06147 
525 2 8.33165 2.10005 2.11748 
526 2 9.23217 2.18075 1.87632 
851 3 10.3559 0.533875 1.8078 
852 3 9.83777 1.87699 1.12141 
346 2 3.94457 7.07505 2.22475 
861 3 9.40837 3.91248 1.42215 
863 3 9.59534 2.27016 2.72897 
1102 4 10.2887 2.51061 2.01963 
1121 4 11.5135 2.32557 3.73304 
1129 4 9.77575 3.30298 2.43258 
1183 4 9.84214 1.37125 2.17259 
962 4 7.75092 2.7775 2.61317 
862 3 8.73313 3.63649 2.91838 
1015 4 7.95238 1.29583 3.72218 
508 2 10.0619 0.865171 3.05775 
527 2 8.62489 1.95377 3.04912 
528 2 8.92831 2.7709 3.49777 
854 3 10.4799 1.70578 2.96927 
628 2 10.7774 3.36735 2.42879 
814 3 5.61332 3.48297 2.84683 
864 3 9.69283 3.37302 3.47228 
801 3 7.66955 0.225999 1.9203 
803 3 7.87823 1.34124 2.55274 
503 2 8.43745 0.917837 1.35237 
505 2 8.80106 1.02003 2.23223 
507 2 9.12005 0.916282 3.11025 
204 2 14.6046 1.37664 1.47947 
223 2 14.3956 3.49672 1.24106 
225 2 13.8093 3.42705 1.98358 
226 2 14.3008 2.75811 2.48349 
702 3 14.4355 2.28936 1.48801 
81 1 12 0 0 
82 1 12 1.5 0 
83 1 12 3 0 
91 1 13.5 0 0 
92 1 13.5 1.5 0 
93 1 13.5 3 0 
1186 4 4.33803 7.12499 3.19998 
604 2 11.2658 1.64368 1.11835 
606 2 12.2404 1.037 1.78861 
621 2 11.9462 2.82887 1.01069 
623 2 11.1471 3.34149 1.29949 
624 2 11.9438 3.94338 1.3554 
625 2 11.3343 2.6064 1.9293 
626 2 12.0956 3.0674 2.1651 
902 3 10.9203 1.63922 2.05503 
911 3 13.5248 2.69897 1.21143 
208 2 13.8909 1.65156 2.74595 
227 2 13.7122 3.65047 2.8915 
230 2 0.076197 2.88786 3.33529 
608 2 11.7626 1.69291 2.71463 
627 2 11.0166 2.54365 2.83852 
629 2 10.7858 3.0882 3.61862 
630 2 11.5659 3.40823 3.1872 
915 3 12.4748 3.57736 3.2013 
1080 4 13.1621 2.6697 2.24571 
1033 4 13.4589 1.19301 1.68533 
901 3 12.4027 0.164599 2.61963 
903 3 12.2884 1.97925 1.70304 
605 2 11.4833 0.426073 1.86707 
607 2 11.2632 0.83672 2.67254 
1052 4 8.98539 7.45138 4.70623 
603 2 11.149 0.649813 1.03597 
207 2 13.5571 0.771699 2.88103 
512 2 8.19029 0.524392 4.76081 
205 2 14.1035 0.317199 2.22844 
203 2 14.2736 0.5119 1.33219 
324 2 1.87521 3.92823 1.16797 
761 3 3.71934 4.11072 1.70195 
4 1 0 4.5 0 
5 1 0 6 0 
14 1 1.5 4.5 0 
15 1 1.5 6 0 
24 1 3 4.5 0 
25 1 3 6 0 
341 2 3.2599 5.95251 0.943846 
343 2 3.59653 5.901 1.82655 
344 2 2.92205 6.53654 1.73859 
345 2 3.88889 6.18967 2.69911 
1112 4 12.8785 0.127985 3.62955 
723 3 0.814356 6.80522 2.64364 
762 3 1.60762 4.85933 1.09189 
1027 4 2.65256 5.12285 1.56548 
327 2 1.0807 4.02001 1.83714 
328 2 1.74617 4.59028 2.15431 
329 2 0.873536 3.69297 2.70083 
250 2 14.8054 5.79113 3.81694 
347 2 2.92808 6.20083 2.69397 
348 2 2.79311 6.70643 3.46133 
349 2 2.21578 5.59527 2.89049 
764 3 2.59795 4.66166 2.57212 
963 4 1.01229 5.55324 2.74091 
1006 4 1.82335 6.63817 2.9299 
1196 4 1.68883 5.58598 1.95687 
822 3 5.04599 6.99676 2.21396 
279 2 14.0005 6.95241 7.0213 
342 2 3.75025 6.77646 1.14463 
34 1 4.5 4.5 0 
35 1 4.5 6 0 
44 1 6 4.5 0 
45 1 6 6 0 
441 2 5.82734 5.8948 0.976807 
442 2 5.52508 6.77101 1.34717 
443 2 5.12073 5.54321 1.51675 
453 2 4.17346 7.31454 5.0243 
445 2 5.2932 5.69971 2.44617 
446 2 6.08518 6.21096 2.21132 
402 2 7.14034 0.588625 1.24693 
955 4 11.9695 3.78683 7.70834 
823 3 6.64962 6.77309 2.77895 
1022 4 6.16376 4.97294 3.15689 
1216 6 4.01574 5.23326 1.13 
447 2 4.80827 6.07373 3.12367 
958 4 3.69146 5.0044 2.52048 
660 2 10.4664 4.3186 7.10377 
54 1 7.5 4.5 0 
55 1 7.5 6 0 
64 1 9 4.5 0 
65 1 9 6 0 
74 1 10.5 4.5 0 
75 1 10.5 6 0 
541 2 9.14081 5.94052 0.984859 
542 2 9.80278 5.2698 1.19379 
543 2 9.70513 6.1316 1.78918 
1191 4 1.65601 2.26567 7.87961 
545 2 10.2158 5.4446 2.20395 
546 2 10.7504 6.223 2.20247 
871 3 10.765 5.46308 1.15008 
873 3 11.5862 6.63407 2.51644 
1089 4 11.3374 5.36743 2.14023 
1201 5 9.9543 4.32435 2.68256 
547 2 10.5428 5.50104 3.064 
549 2 11.1602 6.02829 3.53282 
914 3 10.496 4.09651 1.83219 
224 2 14.9246 4.2336 1.52393 
622 2 12.7494 3.22915 1.22531 
1010 4 13.7128 6.28281 2.19856 
913 3 12.8239 3.66335 2.21239 
241 2 15.0339 6.08519 1.0065 
242 2 14.6551 6.52754 1.76591 
243 2 14.8658 5.44105 1.6935 
244 2 14.024 5.74171 1.34526 
245 2 14.5387 5.39713 2.58622 
246 2 0.107837 6.17688 2.73499 
712 3 14.1858 4.63823 1.96872 
544 2 10.3571 6.37949 1.09461 
84 1 12 4.5 0 
85 1 12 6 0 
94 1 13.5 4.5 0 
95 1 13.5 6 0 
641 2 11.9622 5.91634 1.0356 
642 2 11.7312 4.99963 1.20788 
643 2 12.3706 5.76201 1.87914 
644 2 12.7095 6.624 2.10985 
645 2 12.1437 5.68631 2.85299 
646 2 13.0452 5.83666 2.87389 
912 3 12.2162 4.62732 2.00805 
921 3 12.7515 5.08241 1.18737 
923 3 13.443 5.41867 3.66242 
1046 4 0.627149 6.8179 4.58409 
1110 4 13.3213 5.17666 2.08361 
1164 4 13.422 4.07647 1.32021 
228 2 14.5828 3.82729 2.61265 
1180 4 11.486 4.26771 2.56694 
247 2 14.0513 5.98655 3.14725 
248 2 14.3009 6.87312 2.98257 
714 3 0.230738 4.53002 2.4981 
647 2 12.128 6.38514 3.52004 
648 2 12.4031 7.12609 2.97276 
916 3 11.4567 4.99471 3.55459 
1025 4 13.8537 4.77431 2.93394 
1032 4 12.6894 4.60034 3.03753 
1187 4 10.7874 1.41967 7.49553 
922 3 13.3493 7.23039 2.34646 
722 3 13.1741 6.06779 1.23178 
937 3 12.8682 6.60208 5.27049 
967 4 1.22362 3.69959 7.23481 
210 2 14.5813 1.14497 3.80551 
214 2 0.389489 0.353632 5.42981 
312 2 1.35288 1.3467 4.11595 
331 2 0.828752 3.6788 3.63252 
333 2 1.51487 3.14652 4.10889 
334 2 2.44817 3.138 3.80851 
715 3 0.200259 2.91311 4.28292 
717 3 0.829393 3.36775 4.91643 
754 3 1.0018 2.41786 3.71704 
756 3 2.24367 1.14146 4.32015 
765 3 2.01792 3.95886 3.24845 
767 3 3.07942 2.4136 3.98855 
705 3 0.034669 1.03256 4.63149 
831 3 6.76593 7.22719 1.66188 
1159 4 3.83973 3.12131 3.35975 
992 4 2.23087 3.12898 7.45033 
218 2 0.231995 0.255855 6.59164 
236 2 14.8454 3.58822 6.48202 
238 2 0.570485 2.56412 5.9251 
239 2 0.224859 1.2908 6.55964 
311 2 0.933461 0.458725 4.23191 
755 3 2.53136 0.865242 3.25726 
335 2 1.50446 2.35573 4.67762 
336 2 2.18452 2.83792 5.16151 
337 2 2.02704 1.75951 5.20279 
338 2 2.19092 2.17122 6.03208 
339 2 1.9563 0.978603 5.81222 
340 2 2.55201 1.25497 6.46072 
719 3 1.15122 3.3993 5.99023 
758 3 2.7812 0.245937 4.79521 
930 3 10.8499 4.40666 7.99794 
1048 4 0.371252 1.73639 3.86605 
1144 4 0.895238 2.6627 2.53736 
768 3 2.30056 3.22206 6.06301 
1008 4 1.2526 0.905484 6.90237 
769 3 2.77528 2.43656 6.76252 
1181 4 3.03978 3.2551 4.70668 
1095 4 1.12027 1.6827 6.10027 
718 3 14.8117 3.10452 7.36875 
313 2 1.67317 0.337741 4.84196 
707 3 1.23025 0.312735 5.94877 
309 2 0.720579 0.76173 3.33296 
977 4 1.0394 1.11372 5.20453 
1056 4 2.29996 2.02677 3.34182 
960 4 0.590985 2.0936 4.97224 
310 2 1.63055 0.657935 3.28073 
951 4 3.38715 1.04245 4.12692 
412 2 5.19677 0.690915 4.6698 
872 3 11.232 6.71863 1.01621 
429 2 5.88202 1.21943 3.67124 
431 2 5.27955 1.67217 4.24635 
432 2 5.73692 2.49644 4.10179 
433 2 4.37709 1.36168 4.42495 
434 2 4.63591 2.14468 4.92265 
806 3 5.89975 1.2634 4.96899 
815 3 7.44805 1.61928 4.63176 
817 3 4.32098 2.22753 5.81879 
978 4 4.84515 2.58328 2.35351 
818 3 3.21771 2.05325 5.91884 
1122 4 5.03041 1.62372 6.5023 
816 3 5.23561 3.29796 3.91112 
1214 6 4.09075 1.42438 3.31824 
416 2 3.75346 0.283835 5.19582 
435 2 4.0217 1.30225 5.27164 
436 2 3.55897 2.07986 5.01004 
437 2 3.57043 0.942979 6.06774 
438 2 4.53815 0.650707 6.08888 
1061 4 3.87774 0.41851 2.90431 
1162 4 4.51814 2.49496 3.93415 
1179 4 2.90906 1.22697 5.25375 
1085 4 1.80452 6.82764 1.76567 
409 2 5.80587 0.102639 3.60604 
411 2 5.0417 0.689287 3.75614 
413 2 4.25206 0.183815 3.9865 
673 2 11.831 6.99926 5.36137 
959 4 8.8453 1.50092 4.52989 
868 3 9.72642 3.16688 5.56174 
408 2 6.88978 0.431282 2.93828 
430 2 6.59509 1.7317 4.15502 
804 3 7.79757 0.284046 3.17249 
729 3 0.817967 7.38188 6.96742 
529 2 9.4665 1.85644 3.60883 
530 2 9.55182 2.3522 4.41661 
531 2 10.2942 1.55991 4.00837 
532 2 9.89831 1.3878 4.87925 
533 2 11.0538 1.84185 4.53666 
856 3 8.98964 0.65993 5.24612 
865 3 10.0251 3.16061 4.4288 
1149 4 7.16759 0.64287 4.11096 
866 3 9.40294 1.50802 5.77437 
1168 4 7.95349 2.35554 4.06079 
1021 4 13.6414 7.14949 4.78419 
535 2 10.8746 1.83489 5.46631 
536 2 10.0504 2.29846 5.37365 
537 2 10.3612 1.80709 6.27475 
538 2 10.9367 2.34437 6.77028 
539 2 9.71614 1.85885 6.96584 
540 2 9.64016 2.74499 6.63335 
874 3 10.6783 7.11892 2.79131 
510 2 9.52469 0.591065 4.02787 
855 3 10.4118 0.514183 4.38584 
509 2 8.66384 0.443016 3.81083 
956 4 11.2594 7.49629 1.89739 
1035 4 13.3025 2.76931 3.27713 
1018 4 13.4672 2.2657 6.72919 
908 3 12.4396 2.21149 6.807 
212 2 14.0747 1.74376 4.85707 
229 2 14.2412 3.2796 3.60509 
231 2 14.1507 2.9491 4.51302 
233 2 13.9943 3.27225 5.41387 
234 2 14.9758 3.25117 5.35232 
704 3 14.0435 2.07858 3.56556 
706 3 14.6778 2.1973 5.45915 
971 4 11.5238 1.0681 6.64786 
774 3 3.31433 7.45412 3.31321 
614 2 12.7203 1.26899 4.91614 
534 2 10.9017 2.74385 4.91656 
867 3 11.4414 3.36876 5.36629 
612 2 12.1282 1.69176 4.18733 
631 2 11.4433 3.36445 4.28338 
633 2 12.3756 3.19626 4.15047 
634 2 12.7679 4.03997 4.20069 
904 3 12.3931 2.33844 3.10554 
919 3 13.7554 3.47755 7.29037 
906 3 11.9988 2.47471 4.70096 
1117 4 13.1053 2.38982 4.28086 
640 2 12.1938 3.2813 6.73013 
639 2 11.7317 2.66157 6.10634 
638 2 13.297 3.30098 6.41542 
637 2 12.6738 2.74792 5.89042 
216 2 14.684 1.13692 5.65471 
235 2 14.1939 2.83629 6.23033 
237 2 14.9176 2.26565 6.52838 
635 2 12.8319 3.15171 4.97433 
616 2 12.6553 1.29986 6.43648 
973 4 13.3354 1.99574 5.53741 
615 2 12.2442 0.777898 5.76713 
609 2 11.2708 1.17471 3.56093 
1128 4 10.703 2.96886 5.90431 
209 2 13.581 1.16023 3.7672 
905 3 12.7339 1.37676 2.6574 
215 2 14.1983 0.341149 5.89501 
211 2 13.8646 0.87058 4.62686 
610 2 12.2259 0.918645 3.39348 
1188 4 13.2342 7.04672 6.14535 
611 2 11.532 0.957949 4.52453 
613 2 11.8944 1.48496 5.25821 
907 3 13.4025 0.99823 5.59485 
1088 4 3.89184 1.66962 6.67565 
1140 4 13.0923 0.254073 4.97719 
256 2 0.0362467 6.62087 6.80409 
330 2 1.15269 4.49496 3.04506 
332 2 1.28037 4.32107 4.22014 
357 2 2.03827 6.01189 6.17282 
356 2 1.78137 6.64822 4.99494 
355 2 1.86654 5.71199 5.27128 
258 2 1.09729 6.50024 6.7687 
251 2 14.6059 6.97627 4.46214 
252 2 0.155808 6.7489 3.67407 
253 2 14.9141 6.49058 5.26814 
254 2 14.9019 5.62471 4.90794 
350 2 2.88388 5.37694 3.55961 
351 2 1.64379 5.3393 3.60667 
352 2 1.07505 6.11579 3.68678 
353 2 2.01406 5.16573 4.47466 
354 2 2.25647 6.06539 4.20575 
725 3 0.483545 5.15649 3.62837 
727 3 0.704676 5.44528 5.54437 
766 3 1.25521 4.6412 5.20412 
1167 4 2.45248 4.17919 4.35719 
775 3 3.54613 6.00159 3.82298 
777 3 2.98216 5.76395 4.67283 
358 2 2.80243 6.16719 5.6409 
728 3 0.0896312 6.97425 7.69951 
1071 4 0.92369 6.55577 5.70887 
975 4 0.264969 4.42532 4.75415 
969 4 13.7751 6.03032 5.36142 
257 2 0.653011 5.66633 6.66554 
1083 4 0.206226 4.41134 5.85671 
255 2 14.9749 5.9842 6.09796 
1198 4 1.91561 7.01621 6.06035 
776 3 0.998865 5.70393 4.56403 
1016 4 13.5802 7.44997 1.13556 
1093 4 1.93431 3.88167 5.24047 
1044 4 12.3986 6.96588 1.07565 
457 2 3.74911 6.46976 6.34996 
449 2 4.51497 6.45895 3.97887 
450 2 5.198 7.06131 4.32057 
455 2 4.11409 7.2616 5.98456 
779 3 2.98467 6.77359 4.90021 
451 2 3.77033 7.08683 4.1879 
996 4 10.7431 4.22439 3.96629 
880 3 9.45947 6.48611 7.92452 
879 3 9.88408 4.66728 5.71584 
1152 4 9.28374 4.55342 3.64159 
560 2 9.41368 5.76941 7.24695 
559 2 8.56407 5.66965 6.86942 
558 2 9.71457 5.48338 6.19151 
557 2 8.7743 5.37552 5.95928 
556 2 9.53262 6.08617 5.26192 
555 2 9.12052 5.23223 5.0586 
876 3 9.814 7.14782 3.73444 
548 2 10.1042 6.386 3.01724 
1107 4 6.28756 7.43413 3.62863 
551 2 10.5791 5.71823 4.26621 
552 2 9.76546 6.26885 4.17554 
553 2 10.0112 5.08921 4.77142 
554 2 10.3941 5.65667 5.44101 
877 3 11.0248 5.96974 6.05851 
1189 4 10.4209 3.85744 5.17821 
1156 4 9.08602 3.74585 6.14515 
878 3 9.08077 6.54819 5.96035 
1041 4 10.1215 6.68416 5.8414 
1030 4 10.4424 5.45983 7.33698 
1169 4 13.5942 4.78247 6.10292 
968 4 13.2636 4.32408 5.13379 
954 4 12.4168 5.25156 3.94802 
1081 4 14.2711 5.02239 4.1591 
918 3 12.5765 4.14709 6.09631 
659 2 10.3809 3.91037 6.25759 
658 2 11.6299 4.36717 6.96719 
657 2 11.3208 3.83766 6.19716 
656 2 11.942 4.90726 6.06092 
655 2 11.2767 4.51439 5.4822 
232 2 14.4451 3.89934 4.47647 
1194 4 14.7842 4.20073 3.5622 
632 2 11.7875 4.21584 3.92698 
917 3 13.5357 4.2987 3.79352 
249 2 14.0329 6.29094 4.07228 
716 3 14.2725 4.43681 5.21962 
550 2 10.9287 6.86651 3.89513 
875 3 10.436 7.34509 4.58171 
649 2 12.2755 6.71286 4.42224 
650 2 12.9352 6.03964 4.42234 
651 2 11.8285 5.85882 4.53404 
652 2 11.9336 5.79276 5.4536 
653 2 11.4371 4.96536 4.63188 
654 2 12.3347 4.94731 4.97333 
925 3 13.4308 5.24198 4.73975 
927 3 12.8668 5.37846 5.59911 
636 2 12.2748 3.93811 5.22579 
991 4 10.7142 4.93618 6.30822 
952 4 12.6717 4.17069 7.10013 
928 3 12.7081 5.14268 6.64113 
926 3 12.2915 6.10456 6.22013 
1057 4 11.5316 5.54609 6.89012 
448 2 5.58604 6.59163 3.19724 
1163 4 11.052 6.46821 4.99404 
929 3 12.0281 4.88035 7.69242 
444 2 4.57693 6.29633 1.73005 
220 2 0.513137 0.783937 7.61179 
240 2 0.652647 1.90324 7.21599 
710 3 1.36301 1.02576 8.06598 
770 3 2.14735 1.57541 7.27209 
370 2 1.55298 7.07303 3.83623 
720 3 0.506518 2.05511 8.10551 
1192 4 1.491 2.65992 6.6286 
1047 4 2.68679 0.153459 5.83932 
990 4 2.31755 0.264654 6.91373 
820 3 5.23293 0.529819 6.86048 
439 2 3.4074 0.318766 6.79521 
440 2 4.28734 0.510307 7.09817 
1145 4 9.64951 7.20171 2.39269 
819 3 5.46517 0.776319 5.89418 
1049 4 8.17488 1.40079 5.41061 
920 3 12.7899 3.01487 7.40411 
601 2 11.855 0.0444947 0.991883 
869 3 11.1321 3.23322 7.01216 
909 3 13.4098 1.11698 7.18145 
1082 4 11.2666 0.656964 5.52814 
620 2 12.5613 0.396053 7.54697 
1174 4 14.2859 2.01297 7.64776 
1109 4 11.6003 2.21071 7.59897 
618 2 13.1796 0.451181 6.5622 
910 3 12.266 1.30664 7.48788 
708 3 14.1832 1.42963 6.48073 
219 2 14.6048 0.96435 7.57204 
217 2 14.3146 0.407977 6.83622 
983 4 13.0574 2.07553 7.74636 
260 2 1.40374 6.52021 7.79676 
259 2 1.13318 5.55811 7.56621 
1043 4 2.76893 7.14172 8.67347 
1184 4 2.88917 7.1827 7.50016 
359 2 2.3498 6.46901 6.9428 
730 3 2.29415 6.32095 8.028 
459 2 3.03291 7.14554 6.33845 
360 2 1.91333 7.3292 6.97047 
314 2 2.17987 0.219503 4.02568 
974 4 4.13982 2.97555 5.08144 
1118 4 3.09475 5.74847 6.82647 
829 3 3.76626 7.24894 8.04448 
458 2 3.89733 6.7844 7.2554 
1205 6 12.1132 2.87779 8.36471 
870 3 10.139 3.20335 7.34997 
1067 4 9.32978 4.62022 6.83123 
1101 4 9.76676 4.37188 8.08534 
1157 4 6.68276 0.729084 5.40165 
1160 4 11.133 3.20576 8.17491 
401 2 6.22103 0.344265 1.01124 
213 2 14.5061 0.223414 5.01608 
506 2 8.8382 0.112293 2.49954 
772 3 2.95174 7.22371 2.34758 
1123 4 1.98165 7.36844 8.05215 
778 3 1.26002 7.50895 4.92551 
1211 6 11.3733 7.33998 20.0302 
1195 4 14.4902 3.23156 12.6404 
1075 4 11.4612 7.16187 18.9076 
1212 6 13.9902 2.71967 13.5712 
1111 4 12.9801 2.92285 13.17 
1147 4 5.01965 2.28546 20.8724 
1038 4 10.9881 1.415 13.8772 
1136 4 8.20536 1.09448 20.3236 
1217 7 8.28371 2.29275 20.753 
957 4 1.56412 1.27315 16.6385 
987 4 10.7505 1.01415 19.0633 
1218 7 9.41437 0.928118 19.9712 
997 4 9.19813 0.524288 20.8967 
1065 4 5.49202 4.75672 16.5526 
1132 4 1.11773 2.344 12.9407 
1054 4 12.4331 6.44261 20.2956 
6 1 0 7.5 0 
7 1 0 9 0 
8 1 0 10.5 0 
16 1 1.5 7.5 0 
17 1 1.5 9 0 
18 1 1.5 10.5 0 
26 1 3 7.5 0 
27 1 3 9 0 
28 1 3 10.5 0 
261 2 14.7385 9.07912 1.01491 
262 2 0.596887 9.4131 1.26632 
263 2 14.3317 9.83785 1.4372 
264 2 14.8498 10.6189 1.16228 
266 2 0.0679157 10.6226 2.2231 
361 2 3.01167 9.14219 0.997514 
362 2 3.43937 8.64772 1.69845 
363 2 2.44353 8.40385 1.27962 
364 2 2.24816 9.15419 1.84759 
365 2 1.81634 8.06082 1.91678 
366 2 2.46167 8.39375 2.55127 
731 3 1.11079 8.95784 1.95974 
732 3 0.783615 10.6867 1.15357 
733 3 0.739638 9.91889 2.19358 
782 3 1.79094 9.72985 2.44103 
1171 4 1.6411 10.0599 1.34315 
783 3 2.12875 7.61379 3.01765 
382 2 3.92047 11.4927 1.3817 
383 2 2.86422 11.2067 1.34939 
385 2 2.3141 10.5573 1.91451 
386 2 2.96514 9.86601 2.10161 
743 3 1.28395 10.7992 2.29379 
793 3 3.23647 9.18288 2.7523 
367 2 1.18659 7.93763 2.59648 
368 2 1.41495 8.83065 2.88596 
1127 4 1.22085 9.94839 3.28873 
1137 4 0.0213299 9.11478 2.16896 
1204 5 3.10468 10.2706 1.0608 
287 2 0.641866 11.0112 3.18275 
387 2 2.21053 10.5161 2.83743 
388 2 3.16624 10.6137 2.82838 
1202 5 0.0668608 7.51797 2.76323 
410 2 5.03399 14.9489 3.05147 
36 1 4.5 7.5 0 
37 1 4.5 9 0 
38 1 4.5 10.5 0 
46 1 6 7.5 0 
47 1 6 9 0 
48 1 6 10.5 0 
461 2 5.8411 8.75725 0.985625 
462 2 6.37004 8.03121 1.32366 
463 2 4.99474 8.70061 1.425 
464 2 5.42571 9.49898 1.67378 
465 2 5.38919 8.39644 2.2745 
466 2 6.20406 8.8301 2.09086 
781 3 3.84529 9.50074 1.59112 
1026 4 0.27939 13.9784 6.90279 
832 3 5.69662 10.2044 1.07218 
980 4 4.39201 8.90615 2.27222 
1029 4 6.65058 9.69496 1.12587 
1105 4 4.60997 10.349 1.57383 
995 4 6.74958 10.0469 2.18302 
485 2 5.50102 10.7369 2.07786 
486 2 6.35678 10.985 2.41407 
791 3 3.58771 10.7183 1.81962 
843 3 7.29027 10.859 2.66839 
1113 4 5.10117 11.1399 1.16641 
467 2 5.8492 8.40543 3.09765 
468 2 5.22279 9.14735 3.10978 
834 3 5.79934 9.73496 2.64522 
807 3 5.34838 13.9901 4.94818 
953 4 6.73954 9.36267 3.06104 
1014 4 6.96093 8.24183 2.99699 
487 2 5.07115 10.4652 2.84073 
488 2 5.33944 11.3344 2.98835 
1086 4 4.02249 14.0207 6.8227 
316 2 2.67635 14.326 4.46919 
976 4 4.32152 7.93588 1.03949 
808 3 3.82605 14.7702 6.00626 
833 3 7.16509 8.78102 2.05515 
56 1 7.5 7.5 0 
57 1 7.5 9 0 
58 1 7.5 10.5 0 
66 1 9 7.5 0 
67 1 9 9 0 
68 1 9 10.5 0 
76 1 10.5 7.5 0 
77 1 10.5 9 0 
78 1 10.5 10.5 0 
561 2 9.10567 8.63715 0.969908 
562 2 10.0365 8.51575 1.05854 
563 2 8.45011 8.27849 1.5251 
564 2 8.06262 9.09066 1.90805 
565 2 9.31427 8.07113 1.86072 
566 2 9.35191 9.03533 1.90212 
881 3 10.3251 7.77892 1.64893 
882 3 7.79409 9.6002 1.11722 
883 3 10.3037 9.00781 1.83667 
986 4 7.35798 8.40762 1.04236 
1036 4 12.0408 10.631 1.17732 
1062 4 10.5151 10.0826 1.91532 
1124 4 9.5933 9.61381 1.04313 
663 2 11.2137 8.94643 1.32419 
664 2 11.4921 9.84062 1.53387 
1012 4 10.8391 10.8045 1.31212 
1203 5 11.0761 9.33292 2.61348 
841 3 6.76619 10.7301 1.3976 
582 2 9.87769 11.5062 1.46758 
583 2 8.89338 10.9126 1.20778 
585 2 8.70253 10.0249 1.57074 
586 2 9.46223 10.0292 2.14579 
891 3 9.88456 10.6147 1.26298 
893 3 10.0566 9.83629 2.85532 
567 2 9.54143 8.40446 2.76366 
568 2 8.59005 8.44843 2.62643 
884 3 8.7551 9.35817 2.63216 
1099 4 7.78055 9.01552 3.09179 
825 3 5.8404 7.57423 4.80091 
587 2 7.98378 10.038 2.23435 
588 2 8.43185 10.7465 2.62055 
1063 4 2.31107 14.0474 3.34029 
265 2 14.1394 10.4988 2.04573 
86 1 12 7.5 0 
87 1 12 9 0 
88 1 12 10.5 0 
96 1 13.5 7.5 0 
97 1 13.5 9 0 
98 1 13.5 10.5 0 
661 2 12.085 8.88808 0.951778 
662 2 12.571 8.03426 1.14405 
665 2 11.6404 8.52581 2.147 
666 2 12.5352 8.86281 2.17224 
931 3 11.6671 7.81397 1.00713 
932 3 12.4121 9.78131 1.5529 
933 3 13.3332 8.32007 1.99985 
1074 4 14.1033 8.34733 2.88557 
1114 4 13.1347 10.7506 1.30532 
1143 4 13.3354 9.74104 2.1424 
682 2 12.8464 11.8953 1.33721 
685 2 12.3972 10.6568 2.20682 
686 2 12.9487 11.205 2.81986 
941 3 13.4931 11.4588 1.9205 
943 3 13.4925 10.427 3.15044 
267 2 14.3483 9.86159 2.75408 
268 2 14.6813 10.3675 3.49246 
269 2 14.2314 9.28487 3.49364 
667 2 11.7002 7.88223 2.861 
670 2 12.6675 7.63452 3.96814 
934 3 12.5072 8.74714 3.84263 
1072 4 13.1965 9.35872 3.28087 
924 3 12.3445 7.64191 2.15707 
687 2 12.3146 9.81872 2.66886 
688 2 11.4877 10.3028 2.53609 
1125 4 12.2195 14.2982 6.09668 
760 3 2.00275 14.4864 6.21157 
1024 4 1.9686 11.6314 1.95867 
9 1 0 12 0 
10 1 0 13.5 0 
19 1 1.5 12 0 
20 1 1.5 13.5 0 
29 1 3 12 0 
30 1 3 13.5 0 
281 2 0.187372 11.8207 0.987733 
282 2 1.09243 11.9007 1.24287 
283 2 14.7371 11.9235 1.81318 
284 2 0.47136 12.5335 1.83996 
285 2 0.0824897 11.6997 2.70881 
286 2 0.686418 11.4444 2.05073 
381 2 3.19591 12.0285 1.02402 
384 2 3.02325 11.7802 2.11446 
741 3 1.7189 11.0933 1.1411 
742 3 1.33328 12.3703 2.21761 
792 3 3.77974 11.8494 2.69335 
1094 4 1.70259 12.7291 3.1655 
39 1 4.5 12 0 
40 1 4.5 13.5 0 
49 1 6 12 0 
50 1 6 13.5 0 
481 2 6.18151 12.2022 0.986917 
482 2 6.90788 11.6987 1.29789 
483 2 5.94923 11.493 1.6416 
484 2 5.13079 11.8812 2.04859 
842 3 4.54203 11.1731 2.27224 
1059 4 10.6954 14.65 1.2737 
59 1 7.5 12 0 
60 1 7.5 13.5 0 
69 1 9 12 0 
70 1 9 13.5 0 
79 1 10.5 12 0 
80 1 10.5 13.5 0 
581 2 9.09723 11.7893 0.981348 
584 2 8.73004 11.4505 1.98454 
892 3 7.84069 11.9033 2.16414 
1042 4 7.93305 11.0364 1.56838 
894 3 9.32693 10.993 2.68216 
1100 4 9.92222 10.9596 6.44512 
89 1 12 12 0 
90 1 12 13.5 0 
99 1 13.5 12 0 
100 1 13.5 13.5 0 
681 2 12.0079 11.689 0.947114 
683 2 12.0635 11.5002 1.85393 
684 2 11.1844 11.7316 2.1661 
942 3 10.541 11.0556 2.49358 
270 2 0.197495 9.52302 3.25164 
274 2 14.7158 9.00116 5.18391 
369 2 1.11212 7.89584 3.58442 
371 2 1.71154 8.50977 3.93924 
372 2 0.899467 8.98251 3.81865 
373 2 1.49202 8.6456 4.90539 
374 2 2.27343 8.16378 5.07122 
735 3 0.190233 8.56461 3.10392 
737 3 0.262876 8.40118 5.72391 
784 3 2.21993 9.1521 3.26912 
786 3 1.48421 9.65494 4.20849 
1013 4 3.70838 8.1905 2.63204 
301 2 2.86394 14.9133 0.941475 
787 3 2.56231 8.87961 5.59169 
288 2 1.5352 11.0037 3.44935 
290 2 0.591773 10.2156 4.07361 
292 2 14.3196 11.2883 5.18734 
294 2 14.8432 10.1839 5.72932 
389 2 2.16454 10.1608 3.71918 
390 2 3.08226 9.82115 3.66128 
391 2 2.74696 10.9836 3.69596 
393 2 2.61825 10.8022 4.61813 
394 2 3.24395 10.8344 5.3095 
745 3 14.9 9.57897 4.24768 
747 3 0.671948 10.4355 6.24016 
1213 6 1.55198 10.7714 4.55027 
795 3 2.70499 9.23206 4.26627 
278 2 14.8572 7.68153 6.51752 
375 2 1.41579 9.19782 5.68093 
376 2 1.7783 9.85837 6.26373 
377 2 1.7827 8.60531 6.35781 
378 2 2.14827 9.16516 7.0029 
379 2 2.46439 7.96699 6.13779 
788 3 1.17312 9.49298 6.85788 
965 4 0.545182 8.27872 4.6444 
1028 4 1.19492 7.76907 5.97016 
1037 4 0.605962 9.50087 4.95525 
315 2 1.90699 14.3492 5.05411 
1108 4 3.00382 8.44971 3.48129 
1051 4 2.18094 9.78744 4.96969 
397 2 2.18831 10.6257 5.59544 
398 2 2.65188 11.2713 6.08188 
1076 4 1.16001 10.1985 5.32213 
1087 4 3.10656 9.8536 5.75864 
1090 4 0.444203 9.44621 6.09798 
1004 4 3.17442 8.80273 6.52295 
1019 4 0.727479 8.48469 6.68416 
809 3 4.96469 14.4186 6.45959 
1138 4 3.6201 8.9644 5.26855 
726 3 0.0571999 7.67112 3.83689 
1007 4 2.04019 10.0928 7.55859 
1079 4 3.26073 14.8426 3.52222 
1150 4 3.2475 7.91837 4.63512 
700 2 11.2007 12.0271 6.41272 
454 2 4.32796 8.24383 5.01746 
469 2 6.08923 8.49627 4.02959 
470 2 6.39513 9.39365 4.01255 
471 2 5.66784 8.64932 4.91758 
472 2 5.30002 9.25342 4.28343 
473 2 5.02832 8.94665 5.50848 
474 2 5.8095 9.27047 6.01195 
836 3 4.46277 9.57846 4.63415 
837 3 6.68036 9.25008 6.43083 
1172 4 4.25118 9.38941 3.23047 
1005 4 7.37973 11.4697 5.34704 
1077 4 4.13255 10.1864 2.58216 
489 2 5.22105 10.1491 3.70276 
490 2 6.03323 10.527 3.34552 
491 2 5.5441 10.5139 4.46816 
493 2 5.25372 10.0761 5.28242 
494 2 5.83847 10.5699 5.85377 
797 3 3.5721 10.1272 4.79061 
845 3 6.86456 10.2191 3.70834 
846 3 4.59714 11.9052 4.7554 
847 3 6.58533 10.6028 6.49113 
475 2 4.36062 9.5884 5.68102 
476 2 4.86781 10.1925 6.24797 
477 2 3.82782 9.61747 6.56201 
478 2 4.66115 9.24174 6.92203 
838 3 4.01183 10.5586 6.15659 
495 2 4.58472 10.7177 5.17192 
497 2 4.0413 11.4302 5.53018 
1058 4 4.31094 10.4091 4.13052 
1092 4 6.75108 8.39332 5.0561 
1060 4 5.74463 8.97722 7.02563 
302 2 3.03175 14.0763 1.37117 
1139 4 3.87384 8.7822 4.15808 
826 3 4.56806 8.2529 3.144 
828 3 4.06237 8.47957 6.11916 
1142 4 5.71669 10.0173 6.77667 
1175 4 5.15294 8.14433 4.27414 
805 3 4.21902 14.4508 3.18663 
456 2 3.46015 7.84877 5.64354 
984 4 6.04181 7.6343 2.38991 
827 3 5.00162 7.77022 5.4889 
1177 4 10.5852 8.17052 2.54898 
835 3 7.12923 8.78572 3.99789 
569 2 9.22354 8.95882 3.4697 
570 2 9.82525 8.49436 4.08643 
571 2 8.46742 8.59117 3.99385 
572 2 8.05895 9.43777 3.99346 
573 2 7.93423 8.55913 4.74789 
574 2 8.84394 8.44695 5.10516 
886 3 7.65775 10.0823 4.53186 
887 3 9.76807 8.17258 5.12386 
998 4 6.55582 10.3557 4.90624 
1034 4 8.87356 9.443 4.56469 
1166 4 8.33702 9.9832 5.43444 
589 2 7.79935 10.0207 3.18005 
590 2 8.76 10.05 3.41388 
594 2 8.80454 10.4783 4.51653 
897 3 9.71122 10.7632 4.68994 
944 3 11.0415 10.266 3.34178 
575 2 7.93138 8.87491 5.60993 
576 2 7.3496 9.64009 5.6418 
577 2 8.76064 9.1889 5.86269 
888 3 7.46919 10.5861 5.7501 
889 3 10.2367 8.1297 6.05593 
890 3 9.5844 9.83971 6.17031 
595 2 8.38943 11.1682 5.52821 
597 2 9.17817 10.5798 5.57836 
697 2 10.8743 11.0992 5.87252 
1148 4 9.73944 9.49267 5.16631 
1199 4 10.31 10.2916 5.49251 
1000 4 10.542 9.09706 5.81712 
1053 4 10.8718 8.31771 4.91712 
972 4 9.89372 10.7785 3.50535 
1001 4 10.5145 9.63443 4.34188 
271 2 14.6049 8.54475 4.02216 
272 2 13.9192 8.98494 4.52377 
273 2 14.4307 8.11659 4.86263 
734 3 13.9479 10.1088 4.04569 
736 3 13.6941 8.95132 5.4452 
993 4 13.3641 10.9822 4.40427 
885 3 10.4176 8.89477 3.45273 
668 2 11.5639 8.59983 3.51069 
1158 4 9.82494 12.7082 7.08867 
418 2 4.50798 13.8464 5.86064 
672 2 11.9658 8.35463 4.7576 
824 3 5.2979 7.53913 3.34676 
674 2 12.5754 7.50368 5.12509 
935 3 13.3235 8.13791 4.40023 
936 3 12.7292 8.91496 4.89051 
858 3 9.70937 14.8091 5.55426 
1040 4 13.074 8.04899 2.94907 
1134 4 12.8169 10.0294 3.90999 
289 2 0.508808 11.1604 4.11904 
291 2 14.7543 10.7511 4.57099 
293 2 14.1714 10.2047 5.06319 
746 3 14.4219 11.991 4.47122 
689 2 11.8766 9.66174 3.4802 
690 2 12.1721 10.5905 3.36085 
691 2 11.6078 9.35716 4.34823 
692 2 11.98 10.2452 4.37529 
693 2 11.1856 9.54481 5.15411 
694 2 12.0821 9.82992 5.34245 
945 3 12.5977 11.36 3.8237 
946 3 11.8176 11.1377 4.63893 
947 3 12.5302 10.6636 5.2478 
1003 4 14.4797 11.296 3.5543 
275 2 13.876 7.77105 5.63242 
276 2 14.2525 8.42341 6.23764 
771 3 3.13112 7.53111 1.22669 
675 2 11.6037 7.73134 5.85648 
676 2 12.1395 8.53209 5.87772 
677 2 11.3173 8.28811 6.56168 
678 2 12.0549 8.66931 6.99618 
938 3 11.7196 9.33436 6.2181 
964 4 13.1958 9.84026 4.92842 
1011 4 9.86941 8.8958 6.94626 
1045 4 13.0254 8.14086 6.34589 
1116 4 14.0869 9.41677 6.18795 
295 2 13.5325 10.2735 5.81187 
296 2 13.6486 11.1999 6.02319 
297 2 13.3396 10.2125 6.74723 
695 2 11.2294 10.5229 5.17031 
698 2 11.7024 10.7688 6.21833 
949 3 12.5033 10.3405 6.26874 
452 2 4.18929 7.89861 3.90745 
1130 4 12.779 9.3785 6.01367 
1097 4 10.5788 7.84984 3.67692 
750 3 11.4498 11.2315 7.6363 
709 3 1.03852 14.7764 6.84075 
392 2 2.39191 11.8136 4.04243 
744 3 1.30129 11.8664 3.13824 
794 3 3.87826 11.0142 3.32586 
796 3 1.45768 11.8624 4.24228 
395 2 2.1461 11.4359 5.18041 
396 2 3.0224 11.8057 5.14469 
399 2 1.4069 11.0979 5.95509 
400 2 1.81768 11.943 6.02807 
800 3 1.96175 12.5371 5.32774 
1151 4 2.37692 11.5704 2.90265 
499 2 3.96952 12.2152 6.06536 
1017 4 0.787789 14.477 4.72204 
1193 4 0.426155 10.9875 5.34456 
1161 4 1.01827 11.8562 5.23437 
757 3 1.43066 14.5511 3.90151 
320 2 1.24239 13.9222 5.86986 
319 2 1.05357 13.1854 5.19112 
317 2 1.94976 13.4241 4.82611 
1115 4 0.214998 12.1725 3.68369 
318 2 2.26902 13.5075 5.72715 
773 3 4.50309 7.80551 2.06125 
950 3 12.05 12.3918 6.45662 
492 2 4.98335 11.2256 4.2141 
844 3 6.17345 11.7712 3.1453 
1185 4 6.4196 11.181 4.09262 
798 3 3.64455 12.3056 4.58689 
496 2 5.36156 11.2517 5.25577 
498 2 4.76565 11.2624 6.15871 
848 3 5.03844 12.067 5.71592 
619 2 12.595 14.5379 7.12831 
1146 4 3.60138 11.2701 4.3468 
1031 4 1.26983 13.0008 4.11367 
1096 4 6.08965 11.7505 5.99791 
417 2 4.06354 13.9322 5.03321 
1039 4 2.77439 12.8675 4.58503 
420 2 3.41178 13.5257 6.20995 
985 4 10.596 12.8282 6.33953 
1133 4 4.6699 12.9554 5.10463 
751 3 2.43941 14.1109 2.12418 
591 2 7.73352 10.8339 3.71932 
592 2 8.67673 11.2026 3.66293 
593 2 8.04492 11.1003 4.62646 
895 3 9.60721 9.83412 3.84521 
896 3 9.48099 11.5543 4.10123 
1135 4 8.67011 13.0749 3.85038 
1210 6 8.95125 14.2298 3.79352 
596 2 8.96045 11.7756 5.03916 
598 2 9.79253 11.3504 5.50424 
599 2 8.80328 10.7767 6.42758 
600 2 8.85606 11.7122 6.3496 
898 3 8.46173 12.1161 4.24472 
899 3 10.4222 12.1017 5.44508 
900 3 9.42106 12.3104 5.85652 