LAMMPS (10 Feb 2015)
#------------- Init Section ---------------

include "brush.init"
units 			 lj
atom_style 		 full
pair_style 		 lj/cut/coul/long 2.5 6.0
pair_modify 		 shift yes mix arithmetic
bond_style 		 fene
angle_style 		 cosine/delta
boundary 		 p p f
neighbor 		 0.5 bin
neigh_modify 		 every 1 delay 3 check yes one 10000
kspace_style 		 pppm   0.0001
kspace_modify 		 slab   3.0
special_bonds 		 fene

#------------- Particle Definitions ------------

read_data "brush.data"
  orthogonal box = (0 0 0) to (20 20 62)
  1 by 1 by 4 MPI processor grid
  reading atoms ...
  3248 atoms
  scanning bonds ...
  2 = max bonds/atom
  scanning angles ...
  3 = max angles/atom
  reading bonds ...
  2250 bonds
  reading angles ...
  2850 angles
  3 = max # of 1-2 neighbors
  3 = max # of special neighbors
#------------- Settings Section -----------

include "brush.settings"
#Non-bonded interactions (pair-wise)
pair_coeff 1 1 0.0 1.0
pair_coeff 1 2 0.0 0.75
pair_coeff 1 3 0.0 0.75
pair_coeff 1 4 0.0 0.75
pair_coeff 1 5 0.0 0.75
pair_coeff 1 6 0.0 0.75
pair_coeff 2 2 1.0 0.5
pair_coeff 2 3 1.0 0.5
pair_coeff 2 4 1.0 0.5
pair_coeff 2 5 1.0 0.5
pair_coeff 2 6 1.0 0.5
pair_coeff 3 3 1.0 0.5
pair_coeff 3 4 1.0 0.5
pair_coeff 3 5 1.0 0.5
pair_coeff 3 6 1.0 0.5
pair_coeff 4 4 1.0 0.5
pair_coeff 4 5 1.0 0.5
pair_coeff 4 6 1.0 0.5
pair_coeff 5 5 1.0 0.5
pair_coeff 5 6 1.0 0.5
pair_coeff 6 6 1.0 0.5

#FENE Stretching Interactions
#bond_coeff bondtype k R0 epsilon sigma
bond_coeff 1 30.0 1.5 1.0 1.0


#Harmonic Angle Interaction
angle_coeff 1 1.0 180.0
angle_coeff 2 10.0 90.0
#------------- Run Section -----------

thermo 100
thermo_style custom step dt temp press vol etotal ke pe ebond eangle evdwl ecoul elong
run_style verlet
timestep 0.005

#SIMULATION BOX FIXES

group substrates type 1
200 atoms in group substrates
group bot_substr id <= 100
100 atoms in group bot_substr
group top_substr subtract substrates bot_substr
100 atoms in group top_substr
group polymers type 2:3
2250 atoms in group polymers
group ctr_ions type 4
750 atoms in group ctr_ions
group salt subtract all substrates polymers ctr_ions
48 atoms in group salt
group dump_group subtract all top_substr
3148 atoms in group dump_group
fix 1 substrates setforce 0.0 0.0 0.0
group not_substr subtract all substrates
3048 atoms in group not_substr
fix wall1 not_substr wall/lj126 zlo EDGE 1.0 1.0 2.5
fix wall2 not_substr wall/lj126 zhi EDGE 1.0 1.0 2.5

#Minimize the simulation box.
minimize 1.0e-4 1.0e-4 2000 2000
WARNING: Resetting reneighboring criteria during minimization (../min.cpp:168)
PPPM initialization ...
  G vector (1/distance) = 0.460213
  grid = 24 24 120
  stencil order = 5
  estimated absolute RMS force accuracy = 9.396e-05
  estimated relative force accuracy = 9.396e-05
  using double precision FFTs
  3d grid and FFT values/proc = 77372 51840
Neighbor list info ...
  1 neighbor list requests
  update every 1 steps, delay 0 steps, check yes
  master list distance cutoff = 6.5
Memory usage per processor = 10.912 Mbytes
Step Dt Temp Press Volume TotEng KinEng PotEng E_bond E_angle E_vdwl E_coul E_long 
       0        0.005            0    3932.9018        24800    7469.5841            0    7469.5841    7455.3852            0  -0.06342633  0.020829196    14.241539 
     100        0.005            0 -0.020360367        24800    24.288834            0    24.288834    14.174872    0.1564945  -0.14132409 -0.057982928    10.156774 
     200        0.005            0  -0.20848244        24800    21.050785            0    21.050785    14.305386    0.2054514  -0.30446308   -0.1182299    6.9626409 
     300        0.005            0  -0.31620362        24800    18.490006            0    18.490006    14.383713   0.23864593  -0.51986731  -0.16582301    4.5533377 
     400        0.005            0  -0.32437678        24800    16.960803            0    16.960803    14.361022   0.25857714    -0.687711  -0.20271894    3.2316341 
     434        0.005            0  -0.32563374        24800    16.471652            0    16.471652    14.326061   0.26082103  -0.74354108  -0.21083879    2.8391498 
Loop time of 6.82434 on 4 procs for 434 steps with 3248 atoms

Minimization stats:
  Stopping criterion = energy tolerance
  Energy initial, next-to-last, final = 
         7469.58413727      16.4731145869      16.4716521981
  Force two-norm initial, final = 1.51095e+07 78.8844
  Force max component initial, final = 390131 9.49032
  Final line search alpha, max atom move = 0.00985684 0.0935446
  Iterations, force evaluations = 434 705

Pair  time (%) = 1.54938 (22.7037)
Bond  time (%) = 0.0551313 (0.807863)
Kspce time (%) = 4.69922 (68.8597)
Neigh time (%) = 0.430396 (6.30679)
Comm  time (%) = 0.0508376 (0.744946)
Outpt time (%) = 0.0001719 (0.00251892)
Other time (%) = 0.039201 (0.57443)

Nlocal:    812 ave 1478 max 148 min
Histogram: 2 0 0 0 0 0 0 0 0 2
Nghost:    2606 ave 4062 max 506 min
Histogram: 1 0 0 0 1 0 0 0 0 2
Neighs:    95057.2 ave 189783 max 3018 min
Histogram: 2 0 0 0 0 0 0 0 0 2

Total # of neighbors = 380229
Ave neighs/atom = 117.066
Ave special neighs/atom = 1.38547
Neighbor list builds = 87
Dangerous builds = 0

#Run NVT Equilibration
velocity not_substr create 1.2 44334365
fix 10 not_substr nve
fix 2 not_substr langevin 1.2 1.2 100.0 986537
dump 1 dump_group custom 1000 equil.trj id type x y z
run 100000
PPPM initialization ...
  G vector (1/distance) = 0.460213
  grid = 24 24 120
  stencil order = 5
  estimated absolute RMS force accuracy = 9.396e-05
  estimated relative force accuracy = 9.396e-05
  using double precision FFTs
  3d grid and FFT values/proc = 77372 51840
Neighbor list info ...
  1 neighbor list requests
  update every 1 steps, delay 3 steps, check yes
  master list distance cutoff = 6.5
Memory usage per processor = 9.78698 Mbytes
Step Dt Temp Press Volume TotEng KinEng PotEng E_bond E_angle E_vdwl E_coul E_long 
     434        0.005    1.1260856  -0.17819825        24800    18.160261    1.6886084    16.471652    14.326061   0.26082103  -0.74354108  -0.21083879    2.8391498 
     500        0.005   0.68317553  -0.29755997        24800    18.193194    1.0244478    17.168747    14.635898   0.41184439  -0.48477443  -0.16741188    2.7731904 
     600        0.005     0.910054  -0.29534745        24800    18.190514    1.3646607    16.825853    14.646687   0.38610703  -0.46461528  -0.15599479     2.413669 
     700        0.005    1.2436177  -0.22745674        24800    18.182472    1.8648523     16.31762    14.636811   0.37995116   -0.4377278  -0.14048037    1.8790656 
     800        0.005    1.6278524  -0.18058284        24800    18.174578    2.4410268    15.733551    14.599372   0.38524744   -0.4102094   -0.1334979     1.292639 
     900        0.005    1.9638317  -0.10930409        24800    18.162978    2.9448406    15.218137    14.546474   0.38981427  -0.38868932  -0.13031628     0.800855 
    1000        0.005    2.1913974 -0.0041856398        24800    18.138874     3.286084     14.85279    14.479139   0.39757496  -0.38220569  -0.12419977    0.4824821 
    1100        0.005    2.3107663  0.075348218        24800    18.111846    3.4650823    14.646764    14.431002   0.38875495  -0.36760778  -0.11631238   0.31092623 
    1200        0.005    2.3566532    0.1308384        24800    18.091962    3.5338915     14.55807    14.399297    0.3973145  -0.35033844  -0.11090882   0.22270623 
    1300        0.005    2.3431734   0.12047138        24800    18.088944    3.5136779    14.575266    14.428217   0.44174291  -0.36496264  -0.11194656   0.18221539 
    1400        0.005    2.3062298   0.12663753        24800    18.068529    3.4582797    14.610249    14.452569   0.48240788  -0.36370448  -0.10158437   0.14056127 
    1500        0.005    2.3009975   0.12289852        24800    18.067499    3.4504337    14.617065     14.48714   0.52627201   -0.3741831  -0.10718116  0.085017275 
    1600        0.005    2.3005402   0.15966467        24800    18.054191    3.4497479    14.604444    14.502627   0.55306528  -0.38037884  -0.10999513  0.039125181 
    1700        0.005    2.2976849   0.15856253        24800    18.049416    3.4454663     14.60395    14.508225    0.5802811  -0.39012538 -0.096013802 0.0015837455 
    1800        0.005    2.2785978   0.11649597        24800    18.053618    3.4168444    14.636773    14.528578   0.64056908  -0.41058272  -0.10022667 -0.021564013 
    1900        0.005    2.2697075  0.092809801        24800     18.02749    3.4035131    14.623977    14.561575   0.63996669  -0.44365532  -0.10656697 -0.027343069 
    2000        0.005    2.2321156   0.11640716        24800    18.002293    3.3471426    14.655151    14.579242   0.65689356  -0.45160738   -0.1037827 -0.025594799 
    2100        0.005    2.2283275   0.15509201        24800    17.998447    3.3414621    14.656985    14.554748   0.69236175  -0.46358734  -0.10332453 -0.023213147 
    2200        0.005    2.1851292   0.15408172        24800    17.979336    3.2766846    14.702651    14.615504   0.71424081  -0.50743865 -0.099616636 -0.020038329 
    2300        0.005    2.1956285   0.12359795        24800    17.981728    3.2924288    14.689299    14.622658   0.73759935  -0.54652872  -0.10602039 -0.018409191 
    2400        0.005    2.1755174   0.12480025        24800    17.973269    3.2622714    14.710997    14.642411    0.7601091  -0.56926539  -0.10518945 -0.017068317 
    2500        0.005    2.1833935  0.097687291        24800    17.955093     3.274082    14.681011    14.659479   0.75645106  -0.60685524   -0.1074465 -0.020617039 
    2600        0.005    2.2166436   0.13675234        24800    17.934153    3.3239417    14.610212    14.656508   0.75683796  -0.66400314  -0.11466011 -0.024470695 
    2700        0.005    2.1661862  0.081784473        24800    17.943029    3.2482789     14.69475    14.700624   0.82047702  -0.68747965  -0.11415571 -0.024715459 
    2800        0.005    2.2255785   0.14339779        24800    17.909424    3.3373399    14.572084    14.677424   0.79217675  -0.75113951  -0.11816837 -0.028209036 
    2900        0.005    2.2291513  0.090116965        24800    17.907608    3.3426974     14.56491    14.752161   0.83939903    -0.860429  -0.12976462 -0.036455845 
    3000        0.005    2.2586195   0.10229916        24800    17.897302    3.3868861    14.510416     14.73721   0.84197748  -0.91155996  -0.11864763  -0.03856401 
    3100        0.005    2.2426487   0.06086145        24800    17.880911    3.3629374    14.517974    14.791687    0.8674294  -0.96826587  -0.12976431 -0.043112855 
    3200        0.005    2.2396699  0.087789829        24800     17.86653    3.3584705    14.508059    14.839069   0.83258479  -0.98914035  -0.12911585 -0.045338642 
    3300        0.005    2.2226516  0.074197028        24800    17.880702    3.3329509    14.547751     14.85445   0.89517257   -1.0296008  -0.12783696 -0.044433426 
    3400        0.005    2.2476074  0.083850815        24800    17.872237    3.3703731    14.501864    14.881256   0.88097221   -1.0775605  -0.13549145 -0.047312175 
    3500        0.005    2.2314084  0.055386888        24800    17.860127    3.3460821    14.514045    14.868523   0.89461706   -1.0582967  -0.14289657 -0.047901232 
    3600        0.005    2.2179738  0.092754945        24800    17.824954    3.3259364    14.499017    14.873427   0.86545242   -1.0633706   -0.1306834  -0.04580754 
    3700        0.005    2.2420211  0.042589275        24800    17.810259    3.3619963    14.448263    14.879291   0.88172487   -1.1150877  -0.14200077  -0.05566466 
    3800        0.005    2.2059225  0.084784586        24800    17.793089     3.307865    14.485224    14.881504   0.89170279   -1.0935849  -0.13714875 -0.057248799 
    3900        0.005    2.1644813  0.030905268        24800    17.780113    3.2457224     14.53439       14.905   0.89920089   -1.0694383  -0.13882925 -0.061542829 
    4000        0.005    2.1901147  0.054135421        24800    17.748906    3.2841606    14.464745    14.875483   0.87187206   -1.0718166  -0.14952057   -0.0612727 
    4100        0.005    2.1354455  0.070484183        24800    17.732952     3.202182    14.530769    14.863997   0.88224705   -1.0103232  -0.14056433 -0.064587184 
    4200        0.005    2.1116121  0.047677717        24800    17.724115    3.1664429    14.557672      14.8763   0.90125798   -1.0147952  -0.13660452 -0.068486368 
    4300        0.005     2.088226  0.047534167        24800    17.696571    3.1313746    14.565196    14.887608   0.88308122   -1.0110085  -0.12484523 -0.069639002 
    4400        0.005    2.0933915  0.068944049        24800    17.679379    3.1391205    14.540259    14.851963   0.87142486  -0.97686936  -0.13386805 -0.072391284 
    4500        0.005    2.0982394 0.0016419768        24800    17.646181    3.1463901    14.499791    14.845339   0.84136661  -0.98976884  -0.12443463 -0.072711045 
    4600        0.005    2.0769045 -0.00080237522        24800    17.633225    3.1143975    14.518827    14.858685   0.85041459  -0.97613453  -0.14131158 -0.072826359 
    4700        0.005    2.0448284 -0.002193319        24800    17.626612    3.0662983    14.560313    14.842562   0.85990445  -0.93815408  -0.12966816 -0.074331014 
    4800        0.005    1.9987124   0.04259335        24800    17.608019    2.9971455    14.610874    14.851158    0.8820805  -0.92345015  -0.11914036 -0.079774511 
    4900        0.005    2.0123748  0.041997265        24800    17.583615    3.0176329    14.565983    14.844075   0.84167687  -0.91555687   -0.1240612 -0.080151012 
    5000        0.005    2.0217642  0.050775343        24800    17.603088    3.0317126    14.571376    14.808853   0.89520729  -0.91812665  -0.13589689 -0.078661613 
    5100        0.005    1.9979077  0.057702998        24800    17.562917    2.9959389    14.566978    14.801545   0.85966045  -0.88381447  -0.12766278 -0.082749883 
    5200        0.005    1.9698633 -0.039313435        24800    17.533425    2.9538852     14.57954    14.815237   0.83547211  -0.86025586  -0.12527914 -0.085633655 
    5300        0.005    1.9644303  0.034321743        24800    17.516673    2.9457383    14.570935    14.825805   0.83049725   -0.8693981  -0.13430784 -0.081661482 
    5400        0.005    1.9352251 0.0069506154        24800    17.507866     2.901944    14.605922     14.82532   0.82601118  -0.84179024  -0.12223976  -0.08137945 
    5500        0.005    1.9277301 0.0054924969        24800    17.479591    2.8907048    14.588886    14.793666   0.82696531  -0.82137446  -0.12724048 -0.083130367 
    5600        0.005    1.9437058  0.047498342        24800    17.469286    2.9146611    14.554625    14.768124   0.81729271  -0.82667437   -0.1189717 -0.085146346 
    5700        0.005    1.9193448 -0.014673358        24800    17.454999    2.8781308    14.576868    14.803857   0.80004715  -0.81680014  -0.12421431 -0.086021864 
    5800        0.005    1.9036445 -0.019603291        24800    17.444134    2.8545876    14.589547    14.783434   0.79385596  -0.78226186  -0.11884167 -0.086639456 
    5900        0.005    1.8927159  0.051368166        24800    17.440075    2.8381997    14.601875    14.772507   0.79702808  -0.76076436  -0.12252738  -0.08436868 
    6000        0.005    1.8813368  0.053551264        24800    17.421381    2.8211364    14.600245    14.762146   0.81183125  -0.77780852  -0.11741475 -0.078509116 
    6100        0.005    1.9006955   0.01074149        24800    17.410915    2.8501655     14.56075    14.749609   0.80112676  -0.78573449   -0.1226585 -0.081593077 
    6200        0.005    1.8735636 0.0061500942        24800    17.401216    2.8094802    14.591736     14.75079    0.7890877  -0.75227106  -0.11364168  -0.08222949 
    6300        0.005    1.8552271  0.042480236        24800    17.389981    2.7819839    14.607997    14.775826   0.79421306  -0.76154801  -0.11750034 -0.082994161 
    6400        0.005    1.8381738 0.00047876109        24800     17.38805    2.7564118    14.631638    14.763693   0.80531724  -0.73855481  -0.11486931 -0.083948221 
    6500        0.005    1.8173548 -0.00052788844        24800    17.381731    2.7251929    14.656539    14.775589   0.82287694  -0.73003762  -0.12465103 -0.087239073 
    6600        0.005    1.8086141 0.0040938946        24800    17.358623    2.7120858    14.646537    14.772039   0.80780277  -0.71741728  -0.12642818 -0.089458903 
    6700        0.005    1.7894716  0.034545378        24800     17.33976     2.683381    14.656379    14.760921   0.79833401  -0.70335158  -0.11374786  -0.08577689 
    6800        0.005    1.7710806  0.021142138        24800    17.328568     2.655803    14.672765    14.764712   0.78676206  -0.68073929  -0.11311818 -0.084851631 
    6900        0.005    1.8067713  0.053587661        24800    17.314712    2.7093225     14.60539    14.699835   0.79842816   -0.7070057  -0.10609203 -0.079775675 
    7000        0.005    1.7859223  0.013682276        24800    17.302519    2.6780587     14.62446    14.722449   0.77752394  -0.69158265  -0.10772153  -0.07620879 
    7100        0.005    1.7708867 -0.017937626        24800    17.289305    2.6555122    14.633793    14.725175   0.79653088  -0.70269838  -0.10857036 -0.076644524 
    7200        0.005    1.7534784 0.0057715358        24800    17.292292    2.6294078    14.662885    14.717727   0.80340116  -0.67870359  -0.10682845 -0.072711412 
    7300        0.005    1.7448578  0.011667704        24800    17.281659    2.6164808    14.665179     14.68402   0.80781035  -0.64901271  -0.10209041 -0.075549146 
    7400        0.005    1.7307199  0.021621854        24800    17.270196    2.5952805    14.674915     14.70247   0.77924886  -0.62856827  -0.10092825  -0.07730718 
    7500        0.005    1.7262037  0.089286349        24800    17.255635    2.5885084    14.667127    14.711711   0.76277253  -0.62604341  -0.10429414 -0.077019568 
    7600        0.005     1.735316 0.0076003251        24800     17.25441    2.6021726    14.652237    14.699329     0.772261  -0.64331503 -0.095643085 -0.080394894 
    7700        0.005    1.7649276  0.043500614        24800    17.238916    2.6465763    14.592339     14.69099   0.74897538  -0.65158695  -0.11112657 -0.084912865 
    7800        0.005     1.737778 -0.0040447452        24800    17.239064    2.6058644      14.6332    14.705615     0.768912  -0.64692575  -0.10533712 -0.089064529 
    7900        0.005    1.7195973  0.018548606        24800    17.237698    2.5786018    14.659096    14.710388   0.79437087  -0.64063445  -0.11412745 -0.090901253 
    8000        0.005    1.7257795  0.044360837        24800    17.235927    2.5878722    14.648054    14.661158   0.80426807  -0.62717933  -0.10144641 -0.088746335 
    8100        0.005    1.7338534 0.00044053479        24800    17.206536    2.5999793    14.606557    14.688373   0.75344651  -0.63628359  -0.10894852 -0.090030195 
    8200        0.005     1.725972 -0.018885825        24800    17.197502    2.5881608    14.609341    14.699016    0.7405729  -0.64830532 -0.094959388 -0.086983437 
    8300        0.005    1.7292158 -0.024012235        24800    17.199429    2.5930251    14.606404    14.662345   0.75909809  -0.63076973 -0.096209401 -0.088060193 
    8400        0.005     1.718659 0.0021442579        24800    17.193828    2.5771949    14.616634    14.669551   0.77006947  -0.63557402  -0.10243841  -0.08497474 
    8500        0.005    1.6838468   0.03623591        24800    17.183934    2.5249926    14.658941    14.695872   0.76694375  -0.63199742 -0.090290093 -0.081587377 
    8600        0.005    1.6987625 -0.013513685        24800    17.173512    2.5473592    14.626153    14.672612   0.74835146  -0.60696021  -0.10524235 -0.082608035 
    8700        0.005    1.6605385 -0.034502214        24800    17.181263    2.4900408    14.691222    14.696325    0.7749426  -0.60186744 -0.094296162 -0.083882422 
    8800        0.005    1.6469886   0.05357813        24800    17.161656    2.4697223    14.691934     14.71871   0.75276302  -0.60208858  -0.09472083 -0.082728997 
    8900        0.005    1.6808391  0.036634459        24800    17.160858    2.5204824    14.640375    14.665919   0.77348052  -0.61193281  -0.10298831 -0.084103346 
    9000        0.005    1.6801463  0.028463471        24800    17.160948    2.5194434    14.641504    14.657241   0.77686628   -0.6063791  -0.10076225 -0.085461262 
    9100        0.005    1.6830468 -0.039635187        24800    17.130654     2.523793    14.606861    14.694539   0.73918167  -0.62760968  -0.11270961 -0.086540276 
    9200        0.005    1.6701347  0.014944258        24800    17.117504    2.5044307    14.613073    14.696811   0.71979555  -0.62469768 -0.097367029 -0.081468303 
    9300        0.005    1.6837948 -0.0094241662        24800    17.122216    2.5249146    14.597301    14.659061   0.74745698  -0.63089428 -0.098875718 -0.079446689 
    9400        0.005     1.678128 -0.0060365496        24800     17.10468     2.516417    14.588263    14.676762   0.72300227  -0.62631668  -0.10427853 -0.080906644 
    9500        0.005    1.6544506 -0.0046279062        24800    17.105678    2.4809118    14.624767     14.70207   0.75760591  -0.64068495  -0.11079584 -0.083428158 
    9600        0.005    1.6763218  0.050173531        24800     17.08941    2.5137085    14.575702    14.676084   0.73387126  -0.63766216  -0.11161368 -0.084977806 
    9700        0.005    1.6533635 -0.016884245        24800    17.086885    2.4792816    14.607604    14.696634   0.74527663  -0.63985739   -0.1124469 -0.082002604 
    9800        0.005    1.6402309  0.019547098        24800     17.07828    2.4595888    14.618691    14.688118   0.74993304  -0.64371872 -0.095791213 -0.079850202 
    9900        0.005    1.6332913  0.027359777        24800    17.071186    2.4491826    14.622003     14.68132   0.75850335  -0.63558451  -0.10437808 -0.077858286 
   10000        0.005    1.6172589  0.001528177        24800    17.067438    2.4251415    14.642296    14.720858   0.74723942  -0.65207191 -0.098962627 -0.074766998 
   10100        0.005    1.6584565  0.011422899        24800    17.041793    2.4869188    14.554874    14.668822   0.71865269  -0.64954895  -0.10484063 -0.078210492 
   10200        0.005    1.6448729  0.010840036        24800    17.032024    2.4665496    14.565474    14.646353   0.73983734  -0.63471914  -0.10610517 -0.079891551 
   10300        0.005    1.6574866  0.047417873        24800    17.025008    2.4854645    14.539543    14.632749   0.75191026  -0.65247501  -0.11211095 -0.080529575 
   10400        0.005     1.636281  0.011675729        24800    17.022883    2.4536659    14.569217    14.630841   0.74717216  -0.62744731  -0.10276451  -0.07858367 
   10500        0.005    1.6166184  0.015485398        24800    17.013164     2.424181    14.588983    14.674011   0.74492269  -0.63942745  -0.10976485  -0.08075819 
   10600        0.005    1.6075418 -0.043074727        24800    17.004081    2.4105703    14.593511    14.656145   0.75673152  -0.64222352 -0.097071184 -0.080071419 
   10700        0.005    1.6239554 0.0081606387        24800    16.996271    2.4351831    14.561088     14.66025   0.73915945  -0.66062866  -0.10138697 -0.076305968 
   10800        0.005    1.6272981 -0.032250517        24800    16.987604    2.4401957    14.547408    14.660349   0.74430249  -0.67299777  -0.10877509 -0.075470678 
   10900        0.005    1.6032974 -0.0055662073        24800    16.981168    2.4042056    14.576963    14.686108   0.74661161  -0.67675693  -0.10523675 -0.073763159 
   11000        0.005     1.618545  0.011483245        24800    16.986949      2.42707    14.559879    14.666766    0.7572324  -0.68303914  -0.10237994 -0.078700081 
   11100        0.005    1.6322128 0.0010516818        24800    16.968357    2.4475654    14.520792    14.660065   0.71394584  -0.66576325  -0.10805935 -0.079397049 
   11200        0.005    1.6121192  0.010480164        24800    16.975888    2.4174344    14.558454    14.638979   0.75912109  -0.65062063  -0.10850903 -0.080516436 
   11300        0.005    1.6023482 -0.016536195        24800    16.958766    2.4027823    14.555983    14.651266   0.75669672  -0.65501664  -0.11557105 -0.081392202 
   11400        0.005    1.6097905 -0.029009622        24800    16.945851    2.4139423    14.531908    14.666693   0.74847566  -0.68293773  -0.11882869 -0.081493477 
   11500        0.005    1.5975275  0.018254421        24800    16.923471    2.3955535    14.527917    14.663149   0.74525382  -0.69305484  -0.10985644 -0.077574395 
   11600        0.005    1.6061492  0.021986092        24800    16.925728    2.4084821    14.517246    14.640902   0.75357633   -0.7017222 -0.099245525 -0.076264795 
   11700        0.005    1.5914488  0.020800767        24800    16.922625    2.3864383    14.536187    14.641188   0.73729239  -0.65388818  -0.10786127 -0.080543904 
   11800        0.005    1.5955761 0.0019554953        24800    16.917864    2.3926273    14.525236    14.647582   0.75061005  -0.68578492   -0.1059338 -0.081237279 
   11900        0.005    1.5781941 0.0026693994        24800    16.897491    2.3665623    14.530929     14.67622   0.73146037  -0.68499886  -0.10628528 -0.085467631 
   12000        0.005    1.6041406  0.001931771        24800    16.894533    2.4054701    14.489063     14.63221   0.72610782  -0.68147746  -0.10292008 -0.084856855 
   12100        0.005    1.5960821 -0.013125956        24800    16.901962     2.393386    14.508576     14.65385   0.74912711  -0.70059144   -0.1053883 -0.088421059 
   12200        0.005     1.588728 0.0019332088        24800    16.895316    2.3823583    14.512957    14.668284   0.74836133  -0.70574561  -0.11123973 -0.086702872 
   12300        0.005    1.6063311  0.071330668        24800    16.868224    2.4087548    14.459469    14.657983   0.72308931  -0.71504887  -0.12002878 -0.086525223 
   12400        0.005    1.6073759  0.014968167        24800    16.880604    2.4103216    14.470283     14.63764   0.74778562  -0.72014857  -0.11030666 -0.084687398 
   12500        0.005     1.590319 0.0075985929        24800    16.871501    2.3847441    14.486757     14.65538   0.75873941  -0.73145747  -0.11198202 -0.083922854 
   12600        0.005    1.5998303 0.0045927336        24800    16.870987    2.3990066     14.47198    14.621106   0.75913021  -0.72087406  -0.10526132 -0.082120568 
   12700        0.005    1.5753342 -0.00021230448        24800    16.856161    2.3622737    14.493887     14.64045   0.75342522  -0.71448734  -0.10235992 -0.083141249 
   12800        0.005    1.5769713 -0.014914022        24800    16.838048    2.3647287    14.473319    14.651901   0.74479517  -0.72326185  -0.11228121 -0.087834274 
   12900        0.005      1.61375  0.021866249        24800    16.835651    2.4198797    14.415772    14.634489   0.74241016  -0.75915711  -0.11095774 -0.091012182 
   13000        0.005    1.5932535 -0.028210584        24800    16.824029    2.3891445    14.434885    14.683271   0.73451369  -0.76741203  -0.12372455 -0.091763328 
   13100        0.005    1.5925266  0.025311504        24800    16.825685    2.3880545     14.43763    14.664476   0.75163664  -0.76770525  -0.11946586 -0.091311519 
   13200        0.005    1.6005419  0.036430237        24800    16.827285    2.4000737    14.427211      14.6585   0.75069997  -0.77609035  -0.11410986 -0.091788986 
   13300        0.005    1.5776767 -0.0073680969        24800    16.821318    2.3657865    14.455532    14.649748    0.7664065  -0.75724317  -0.11135577 -0.092023577 
   13400        0.005    1.6039966 -0.0082015707        24800    16.810497    2.4052541    14.405243    14.620581   0.77418492  -0.78861375  -0.10962921 -0.091280388 
   13500        0.005    1.5863234   0.04913305        24800    16.800302    2.3787525    14.421549    14.612685   0.78441637  -0.77887506  -0.10965331 -0.087024076 
   13600        0.005    1.5960847  0.015715069        24800    16.795679    2.3933899    14.402289    14.654076   0.76987038  -0.81427723  -0.11936349 -0.088016526 
   13700        0.005    1.5888574  0.014801216        24800    16.791529    2.3825523    14.408977    14.666033   0.77382754  -0.82861844  -0.11516224 -0.087103043 
   13800        0.005    1.5841187 0.0048479046        24800    16.785388    2.3754465    14.409942    14.663521   0.76857065  -0.81214413  -0.12193478  -0.08807093 
   13900        0.005    1.5551785  0.018125075        24800    16.776558    2.3320495    14.444509      14.6492   0.76400377  -0.76677727  -0.11336735 -0.088550761 
   14000        0.005    1.5791368  0.022837462        24800    16.784811     2.367976    14.416835    14.642903   0.76751076  -0.79158648  -0.11397892 -0.088013375 
   14100        0.005     1.585902  0.011920864        24800    16.788029    2.3781207    14.409908     14.62323   0.79975809  -0.81317705   -0.1127618 -0.087141337 
   14200        0.005    1.5947963  0.050065905        24800    16.762509     2.391458    14.371051    14.628797    0.7684322  -0.83047258  -0.10960283 -0.086103207 
   14300        0.005    1.5824598  0.035058124        24800    16.752708    2.3729588    14.379749    14.638856   0.77152429  -0.82880559  -0.11469586 -0.087129944 
   14400        0.005    1.5769018  0.018968179        24800    16.737199    2.3646245    14.372574    14.635414   0.76858773  -0.82937274  -0.11670193 -0.085352402 
   14500        0.005    1.5795544  0.013131869        24800    16.739812    2.3686021     14.37121    14.644811   0.76722491  -0.82389503  -0.12815353 -0.088777668 
   14600        0.005    1.5693159 -0.016328046        24800    16.732207    2.3532492    14.378958     14.63986   0.78231631   -0.8272321  -0.12558686 -0.090399133 
   14700        0.005    1.6078999 0.00052333023        24800    16.725841    2.4111073    14.314734    14.623137   0.77079641  -0.87122812  -0.11755576 -0.090415833 
   14800        0.005    1.6011517  0.017788071        24800    16.706089     2.400988    14.305101    14.627187   0.75009181  -0.86704643  -0.11573498 -0.089397038 
   14900        0.005    1.5697294  0.031285057        24800    16.701898    2.3538691    14.348029    14.648393   0.76147068  -0.84938304  -0.12357948  -0.08887235 
   15000        0.005    1.5822816  0.034494913        24800    16.678915    2.3726916    14.306223    14.650504   0.75027434  -0.89171212  -0.11490173 -0.087941076 
   15100        0.005    1.5824387 -0.015943123        24800    16.666723    2.3729272    14.293796     14.65525     0.728848   -0.8890798  -0.11405208 -0.087169539 
   15200        0.005    1.5916132  0.046569932        24800    16.675041    2.3866848    14.288356    14.630856   0.75570148  -0.88785645  -0.12211155 -0.088233229 
   15300        0.005    1.5969242  0.034301846        24800    16.677057    2.3946487    14.282408    14.622759   0.76896271  -0.88485213  -0.13610591 -0.088355415 
   15400        0.005    1.5839878   0.02742775        24800    16.681232    2.3752502    14.305981    14.640744   0.77572864  -0.89063027  -0.13075517 -0.089106261 
   15500        0.005    1.5821148  0.055002401        24800    16.673086    2.3724415    14.300645    14.632751   0.76832265  -0.87969959  -0.13138214 -0.089346666 
   15600        0.005    1.5786289  0.011759183        24800      16.6792    2.3672143    14.311985    14.625667    0.7712706  -0.87132242  -0.12652422 -0.087106109 
   15700        0.005    1.5671328   0.05140037        24800    16.664589    2.3499754    14.314613    14.641284   0.77597076   -0.8991616  -0.11418741  -0.08929234 
   15800        0.005    1.5544992  0.023243127        24800    16.657271    2.3310308     14.32624    14.640242   0.78847008  -0.89720151  -0.11930364 -0.085966337 
   15900        0.005    1.5880766 -0.015864866        24800    16.630045    2.3813814    14.248664    14.622517   0.72799059  -0.89924674  -0.11520013 -0.087396318 
   16000        0.005    1.5626527  0.041563086        24800    16.641714    2.3432573    14.298457    14.638774   0.75955613  -0.89815908  -0.11385924 -0.087854816 
   16100        0.005    1.5941667  0.063531934        24800    16.611458    2.3905138    14.220944    14.623264   0.72264202   -0.9112548  -0.12365568 -0.090052046 
   16200        0.005    1.6025925 -0.014021092        24800    16.615033    2.4031486    14.211884    14.638436   0.73772316  -0.94135195  -0.13279702 -0.090125675 
   16300        0.005    1.5865237  0.025899129        24800    16.620231    2.3790528    14.241178    14.627819    0.7718384  -0.94265875  -0.12690577 -0.088915322 
   16400        0.005    1.5495272 -0.0097233349        24800    16.620079    2.3235753    14.296503    14.653482   0.80146549  -0.95719181  -0.11689441 -0.084357635 
   16500        0.005    1.5872617 0.0023600924        24800    16.606197    2.3801595    14.226038    14.626316   0.78698947  -0.97746735   -0.1223753  -0.08742554 
   16600        0.005    1.5566699 -0.024115926        24800    16.605453     2.334286    14.271167    14.669542    0.7946505  -0.98437971  -0.12096106 -0.087684086 
   16700        0.005    1.6048494  0.012640313        24800    16.590766    2.4065329    14.184233    14.668738   0.75656419   -1.0132687  -0.13922672 -0.088574119 
   16800        0.005    1.5683119 0.00076481267        24800    16.582899    2.3517436    14.231156    14.657294   0.77091882  -0.98191409  -0.12956381 -0.085578998 
   16900        0.005    1.5907852 -0.015937399        24800     16.57148    2.3854431    14.186037    14.635167   0.77238172   -1.0014484  -0.13495682 -0.085107096 
   17000        0.005    1.5493701   0.05152052        24800    16.568133    2.3233396    14.244793    14.662826    0.7757946   -0.9758258  -0.13154731 -0.086454756 
   17100        0.005    1.5793397 -0.050964717        24800     16.55354    2.3682802     14.18526    14.643743   0.75447652   -1.0063359  -0.11990808 -0.086715476 
   17200        0.005    1.6074342  0.051329719        24800    16.541819     2.410409     14.13141    14.581273   0.73886858  -0.97685924  -0.12637855 -0.085493841 
   17300        0.005    1.5562936  0.024348856        24800    16.556106    2.3337216    14.222384     14.66293   0.78323628   -1.0102757   -0.1260939   -0.0874127 
   17400        0.005    1.5450603 -0.003482594        24800     16.53909    2.3168769    14.222213    14.662666   0.77224366   -1.0017357  -0.12550136  -0.08545979 
   17500        0.005    1.5586379  0.019978741        24800     16.53299     2.337237    14.195753     14.62096   0.78053969  -0.99552546  -0.12393954 -0.086281341 
   17600        0.005    1.5583758 0.0084900412        24800    16.513165    2.3368441    14.176321    14.640946    0.7559123  -0.99612833  -0.13256573 -0.091842603 
   17700        0.005    1.5698665  0.023152423        24800     16.50281    2.3540748    14.148736    14.616679   0.73247649  -0.97269442  -0.13406249 -0.093662712 
   17800        0.005    1.5658403 0.00068672854        24800    16.509884    2.3480373    14.161847    14.627668   0.76221109  -0.99871567  -0.13268304 -0.096633376 
   17900        0.005    1.5561452   0.01287357        24800    16.489978    2.3334991    14.156479    14.626972   0.73428205  -0.97477519  -0.13273741 -0.097262265 
   18000        0.005     1.543987  0.037247833        24800    16.506248    2.3152674    14.190981    14.623869   0.78604324  -0.98920815  -0.13538419 -0.094338998 
   18100        0.005    1.5436982 -0.026400106        24800    16.486454    2.3148343    14.171619    14.635329   0.75196448  -0.99556079  -0.12824391 -0.091869804 
   18200        0.005    1.5136305 -0.0074602883        24800    16.495568    2.2697467    14.225821    14.638724   0.79887825  -0.99600792  -0.12912616 -0.086647233 
   18300        0.005    1.5515765  0.021126866        24800    16.471856    2.3266482    14.145208    14.603063   0.75005441  -0.98813227  -0.13312747 -0.086650033 
   18400        0.005    1.5317995  0.018178871        24800    16.472018    2.2969918    14.175026    14.647307   0.75119489   -1.0023715  -0.13263809 -0.088466436 
   18500        0.005    1.5469187 -0.029699652        24800     16.46077    2.3196637    14.141106    14.617432   0.75060742   -1.0035998  -0.13150385 -0.091829226 
   18600        0.005    1.5372663 -0.0009943973        24800    16.448047    2.3051894    14.142857    14.623414   0.75538505   -1.0070336  -0.13673773 -0.092170731 
   18700        0.005    1.5382801 -0.040954699        24800     16.43066    2.3067097     14.12395    14.649005   0.73211671   -1.0304972  -0.13424216 -0.092432572 
   18800        0.005    1.5426527  -0.01598386        24800    16.434659    2.3132666    14.121392    14.629948   0.75794535   -1.0487143  -0.13082842 -0.086958432 
   18900        0.005    1.5366959  0.052131312        24800    16.440334    2.3043342       14.136    14.618699   0.78766248   -1.0533607  -0.13168991 -0.085311603 
   19000        0.005    1.5310009  0.029769903        24800    16.435648    2.2957943    14.139853    14.606478   0.78717777   -1.0441235  -0.12889113 -0.080787577 
   19100        0.005    1.5191629 -0.033183827        24800    16.423992    2.2780427    14.145949    14.622644   0.77061229   -1.0385969  -0.12816254 -0.080547828 
   19200        0.005    1.5278192 -0.039151167        24800    16.397772    2.2910233    14.106749    14.633419   0.76199171   -1.0669404  -0.13896467 -0.082757039 
   19300        0.005    1.5483077 -0.00097283143        24800    16.386884    2.3217465    14.065138    14.598181    0.7413737    -1.054258  -0.13606556 -0.084093495 
   19400        0.005    1.5399189  -0.01958023        24800    16.384294    2.3091672    14.075127    14.619273   0.74972636   -1.0837007  -0.12828256 -0.081889714 
   19500        0.005    1.5140343  0.015805779        24800    16.383383    2.2703523     14.11303    14.622799    0.7589834   -1.0649304  -0.12327751 -0.080543736 
   19600        0.005    1.5083266 0.0050714171        24800    16.378964    2.2617934    14.117171    14.600952   0.77863846   -1.0558493  -0.12669399 -0.079876077 
   19700        0.005    1.5068751 -0.0071339054        24800    16.384335    2.2596167    14.124719    14.624565   0.77253071   -1.0706148  -0.12101972 -0.080742537 
   19800        0.005    1.4916454 -0.0053752478        24800    16.381947    2.2367793    14.145168    14.617218   0.78076865    -1.048956   -0.1253489 -0.078513236 
   19900        0.005    1.5293703  0.012264575        24800    16.360067    2.2933491    14.066718     14.61901   0.76390908   -1.0973134  -0.13894153 -0.079946179 
   20000        0.005     1.556848  0.038136557        24800    16.351261    2.3345531    14.016708    14.616573   0.74167722   -1.1305404  -0.13117162 -0.079829403 
   20100        0.005    1.5290008 -0.025251414        24800    16.347986     2.292795    14.055191    14.634754   0.74997235   -1.1261434  -0.12243256 -0.080960147 
   20200        0.005    1.5004758 -0.024194676        24800    16.338887    2.2500208    14.088866    14.625198   0.75904261   -1.0854753   -0.1261264 -0.083773051 
   20300        0.005    1.5229388 -0.0013553703        24800    16.331216    2.2837049    14.047511    14.593087   0.74742571   -1.0835119  -0.12538298 -0.084105937 
   20400        0.005    1.5277334 -0.023599461        24800    16.324849    2.2908945    14.033954    14.599367   0.74934379   -1.0966994  -0.13090115 -0.087156085 
   20500        0.005    1.5413079 -0.035073689        24800    16.329653      2.31125    14.018403    14.627213   0.75088496   -1.1366496  -0.13663906 -0.086406765 
   20600        0.005    1.5478165 -0.018910159        24800    16.311347    2.3210099    13.990337    14.615261   0.74529152   -1.1522882  -0.13006883 -0.087858352 
   20700        0.005    1.5224319 -0.0034840181        24800    16.311283    2.2829448    14.028338    14.632318   0.76891162   -1.1394977  -0.14189009 -0.091503437 
   20800        0.005    1.5491289 -0.035498186        24800    16.300869     2.322978    13.977891    14.636243   0.75472645   -1.1710818  -0.14765506  -0.09434243 
   20900        0.005    1.5464667  0.033575529        24800    16.281384    2.3189859    13.962398    14.632511    0.7536334    -1.181223  -0.14890944  -0.09361396 
   21000        0.005    1.4962399 -0.042530494        24800    16.288231    2.2436689    14.044562     14.67031   0.76838772   -1.1539133  -0.15003704 -0.090185169 
   21100        0.005    1.5199923 -0.068646232        24800    16.272063    2.2792864    13.992776     14.65416   0.74839775   -1.1786403  -0.14382202  -0.08731875 
   21200        0.005    1.5308446 0.0074221656        24800    16.263416      2.29556    13.967856    14.596957   0.75964912   -1.1498235  -0.15116598 -0.087761074 
   21300        0.005    1.5083146 -0.021447035        24800    16.269647    2.2617754    14.007871    14.613647   0.77029657   -1.1438634  -0.14054101 -0.091667859 
   21400        0.005    1.5081217 -0.045633419        24800    16.264941     2.261486    14.003455    14.636985   0.75695438   -1.1464932  -0.15026358  -0.09372719 
   21500        0.005    1.5343613 0.0012293141        24800    16.248292    2.3008334    13.947459    14.620402   0.73248111   -1.1697054  -0.14138127 -0.094337811 
   21600        0.005    1.5334136  0.042120139        24800    16.252216    2.2994122    13.952804    14.592389   0.76034758   -1.1584252  -0.14881931 -0.092688578 
   21700        0.005    1.5290306   0.02733192        24800    16.257849    2.2928397    13.965009    14.606785   0.77941971   -1.1742343  -0.15444898 -0.092511913 
   21800        0.005    1.5187292 0.0011012275        24800    16.235876    2.2773924    13.958483    14.604374   0.74362914   -1.1530482  -0.14133104 -0.095141098 
   21900        0.005    1.4900523 -0.010699115        24800    16.232995    2.2343903    13.998605    14.632173   0.75545533   -1.1555985  -0.13884182 -0.094582785 
   22000        0.005    1.5010078 0.00096052597        24800    16.222801    2.2508185    13.971983    14.608999   0.76177114   -1.1678734  -0.13900284 -0.091911293 
   22100        0.005    1.5140345 -0.021634457        24800    16.241007    2.2703525    13.970654    14.611189   0.79814916   -1.2140384  -0.13603485 -0.088610005 
   22200        0.005    1.5121588 -0.0015604648        24800    16.225757    2.2675398    13.958217    14.607458   0.77663803   -1.2001988  -0.13856041 -0.087120078 
   22300        0.005    1.4977518 -0.043366158        24800    16.228377     2.245936    13.982441    14.600496   0.78354364   -1.1706703  -0.13891621 -0.092012547 
   22400        0.005    1.5230935 -0.0038429195        24800    16.208661    2.2839369    13.924724    14.595298   0.73087763   -1.1611587  -0.14522403 -0.095068768 
   22500        0.005    1.4835759  0.030627644        24800    16.208713    2.2246787    13.984035    14.600188   0.77536505   -1.1465017  -0.14863391 -0.096382302 
   22600        0.005    1.4875134   0.01066833        24800    16.195205    2.2305832    13.964622    14.629047   0.76584537   -1.1885497  -0.14690004 -0.094821089 
   22700        0.005    1.5127533 -0.015098395        24800    16.161612    2.2684314     13.89318    14.620633   0.72455214   -1.2091085  -0.14942162 -0.093474591 
   22800        0.005     1.495582 -0.021385897        24800    16.160625    2.2426823    13.917943    14.631164   0.73156024   -1.1963803   -0.1558654 -0.092536022 
   22900        0.005    1.4908431 -0.055517066        24800    16.155371    2.2355761    13.919795     14.61394   0.73201801   -1.1961085  -0.14072416 -0.089329859 
   23000        0.005    1.4913007  0.020967369        24800     16.15581    2.2362623    13.919548    14.619739   0.74726392   -1.2073311  -0.15030239 -0.089821032 
   23100        0.005    1.4964859  0.024067318        24800     16.14841    2.2440377    13.904372    14.616945   0.74637411   -1.2249187   -0.1454898 -0.088538276 
   23200        0.005    1.5092683 0.0010113857        24800    16.136743    2.2632054    13.873538    14.614675    0.7380636   -1.2481013  -0.14695258 -0.084146681 
   23300        0.005    1.5055581  0.022064083        24800     16.13643    2.2576419    13.878788    14.610717   0.74841759    -1.248144  -0.14684932 -0.085352972 
   23400        0.005    1.5057682  0.015664598        24800    16.133601    2.2579569    13.875644    14.597591   0.75610652   -1.2636926   -0.1356233 -0.078737607 
   23500        0.005     1.491258  0.050000118        24800    16.125222    2.2361982    13.889023    14.624621   0.74775225   -1.2577728  -0.14353359 -0.082043344 
   23600        0.005    1.5235431 -0.003700397        24800    16.116729    2.2846111    13.832118    14.584187   0.74723641   -1.2676375  -0.14813632 -0.083531857 
   23700        0.005    1.4931707 -0.0087236938        24800    16.115501    2.2390664    13.876435    14.627926   0.76544072   -1.2652152  -0.16346102 -0.088255918 
   23800        0.005    1.4908975  0.018730759        24800    16.100835    2.2356578    13.865178    14.620261   0.75800295   -1.2873061  -0.13985337 -0.085926283 
   23900        0.005     1.474683 -0.017139581        24800    16.100315    2.2113435    13.888971    14.628033   0.75835421   -1.2721039  -0.13995228 -0.085360074 
   24000        0.005    1.5180719   0.05031432        24800    16.098062    2.2764068    13.821655    14.588236   0.75412572   -1.2832518  -0.14796509 -0.089489772 
   24100        0.005    1.5159126 -0.042528139        24800    16.078303    2.2731688    13.805134    14.611012   0.72731246   -1.2848278  -0.15539085 -0.092972511 
   24200        0.005    1.5141914 -0.0048214399        24800    16.081176    2.2705878    13.810588    14.627967   0.75428596   -1.3220028  -0.15616714 -0.093494157 
   24300        0.005    1.5003457  0.054252032        24800    16.081397    2.2498257    13.831572    14.607252   0.77779163   -1.3101832  -0.15065786 -0.092630648 
   24400        0.005    1.5139626 0.0014485635        24800    16.075507    2.2702447    13.805263     14.60035   0.76067192   -1.3175373  -0.14540216 -0.092819605 
   24500        0.005    1.4958889 -0.043415321        24800    16.067252    2.2431425    13.824109     14.63083   0.78006154   -1.3413636  -0.15395233 -0.091466521 
   24600        0.005    1.4855653  -0.03882073        24800    16.050699    2.2276619    13.823037    14.618914   0.76229194   -1.3186789  -0.15035548 -0.089134487 
   24700        0.005    1.4940026  0.037169052        24800    16.044885    2.2403139    13.804571    14.596331   0.74899032   -1.3077652  -0.14312309 -0.089862562 
   24800        0.005     1.490682  -0.01570722        24800    16.024784    2.2353346    13.789449     14.61888   0.72975563   -1.3158954  -0.15276965 -0.090521059 
   24900        0.005    1.4948377  0.036543887        24800    16.049393    2.2415663    13.807827    14.583243   0.77423177   -1.3036951  -0.15750555 -0.088446908 
   25000        0.005    1.4874533 -0.0070169267        24800    16.026672     2.230493    13.796179    14.595948   0.75410685   -1.3178691  -0.15019835 -0.085808376 
   25100        0.005    1.4943946  0.016080961        24800    16.013901    2.2409018    13.772999    14.587003   0.73252368   -1.3288096  -0.13822466 -0.079493175 
   25200        0.005    1.4757863 -0.045644891        24800    16.012479    2.2129979    13.799482    14.613601    0.7276727   -1.3234122  -0.13617944 -0.082200716 
   25300        0.005    1.4656293 -0.056791068        24800    16.016128    2.1977671    13.818361    14.603194    0.7474597   -1.3049912  -0.14096095 -0.086340336 
   25400        0.005    1.5169956  0.046475389        24800    16.010735    2.2747928    13.735942    14.588198   0.72662914   -1.3342462  -0.15530162 -0.089337227 
   25500        0.005    1.4792736 -0.019081859        24800    16.014543    2.2182272    13.796316    14.596687    0.7497303   -1.3187641  -0.14348467 -0.087852326 
   25600        0.005    1.5098473 0.0097697475        24800    15.997296    2.2640737    13.733222    14.594645   0.73694437   -1.3512864  -0.15625779 -0.090822823 
   25700        0.005    1.4951452 0.0025383562        24800    16.008926    2.2420274    13.766899    14.606875   0.77616558   -1.3666711  -0.16030718 -0.089163668 
   25800        0.005    1.5197885  0.033858532        24800    15.994298    2.2789808    13.715318    14.573377   0.75408612   -1.3720716    -0.152974 -0.087099529 
   25900        0.005     1.503481  0.033808955        24800    15.978733    2.2545272    13.724206    14.607674   0.75351111   -1.3921405  -0.15447521   -0.0903639 
   26000        0.005    1.5124551  0.035729912        24800    15.973641    2.2679842    13.705656    14.607489   0.74971181   -1.4108168  -0.15177884 -0.088948631 
   26100        0.005    1.5126996 -0.021292383        24800    15.965545    2.2683509    13.697194     14.61418   0.76328018   -1.4420371  -0.15073814 -0.087490856 
   26200        0.005    1.5022923 -0.0098915791        24800    15.954743    2.2527446    13.701998    14.615496   0.76479949   -1.4468603  -0.14304758 -0.088389535 
   26300        0.005    1.4800744 -0.032385907        24800    15.957306    2.2194281    13.737878    14.618115   0.78469684   -1.4230991  -0.14937174 -0.092462351 
   26400        0.005    1.4970276 -0.031162811        24800    15.951149      2.24485    13.706299    14.602608   0.78489528   -1.4381574  -0.15112038 -0.091927161 
   26500        0.005    1.5008709 -0.018244334        24800    15.952729    2.2506132    13.702116    14.616759   0.77860422   -1.4351757  -0.16355289 -0.094519088 
   26600        0.005    1.5114161 -0.022189195        24800    15.939211    2.2664261    13.672784    14.603239   0.76903929    -1.442038  -0.16444489 -0.093010998 
   26700        0.005    1.4825678 -0.0019869402        24800    15.928926     2.223167    13.705759    14.589209   0.77799933   -1.4157173  -0.15667499 -0.089056824 
   26800        0.005     1.499548 -0.032181263        24800    15.929912    2.2486294    13.681283    14.596742   0.76902537   -1.4321794  -0.16183954 -0.090465751 
   26900        0.005    1.4831111 -0.031312104        24800     15.92059    2.2239817    13.696609    14.588759   0.76388236   -1.4104661  -0.15533634 -0.090230381 
   27000        0.005    1.4773266 -0.039567652        24800    15.902685    2.2153077    13.687378    14.615907   0.74682997   -1.4338509  -0.15379545 -0.087712816 
   27100        0.005    1.4694152 -0.045887128        24800    15.916285    2.2034442    13.712841    14.593891   0.78430355   -1.4332152  -0.14609514 -0.086043095 
   27200        0.005    1.4543094 -0.011988781        24800    15.905466    2.1807924    13.724674    14.628669   0.76077128   -1.4177927  -0.15960816 -0.087365634 
   27300        0.005    1.4922561  0.028519373        24800     15.89799     2.237695    13.660295      14.5949   0.74724513   -1.4438203  -0.14969071 -0.088339438 
   27400        0.005    1.4822543 0.0014517318        24800      15.9038    2.2226969    13.681103    14.619851    0.7706469   -1.4621482   -0.1582498 -0.088997109 
   27500        0.005    1.5169308  0.013210474        24800    15.886637    2.2746957    13.611942    14.606632   0.73203845   -1.4753839  -0.16063046 -0.090714688 
   27600        0.005    1.4946245  0.037580342        24800    15.891928    2.2412466    13.650681    14.589603   0.75603791   -1.4560376  -0.15095734 -0.087965448 
   27700        0.005     1.510185  0.034904605        24800    15.876078    2.2645801    13.611498     14.59529   0.72284431   -1.4521676  -0.16412106 -0.090347507 
   27800        0.005    1.4813221 -0.0067536118        24800    15.860553     2.221299    13.639254    14.608109   0.72288578   -1.4410961  -0.15945183 -0.091193811 
   27900        0.005    1.4652608 -0.011836858        24800    15.844238    2.1972144    13.647024    14.627254   0.73069257    -1.468944  -0.15446469  -0.08751367 
   28000        0.005     1.447156 -0.029481186        24800    15.842792    2.1700657    13.672727    14.610606   0.75432111   -1.4556683  -0.14879574 -0.087736391 
   28100        0.005    1.4844741 -0.011388291        24800    15.850103    2.2260256    13.624078    14.598358   0.77183794   -1.4935564  -0.16118751 -0.091374619 
   28200        0.005    1.4885148 -0.0019942971        24800    15.837152    2.2320847    13.605068    14.621096   0.75293622   -1.5217506  -0.15667443 -0.090539765 
   28300        0.005    1.4839119  0.016437437        24800     15.83689    2.2251825    13.611708    14.576584   0.75705804   -1.4745341  -0.15561039 -0.091789375 
   28400        0.005    1.4757328 -0.079140224        24800     15.82955    2.2129176    13.616632     14.61421   0.75732893   -1.5007001  -0.16186623 -0.092340384 
   28500        0.005    1.4656864  -0.04502299        24800    15.821073    2.1978528    13.623221    14.628566   0.77462619   -1.5239555  -0.16459334 -0.091422715 
   28600        0.005    1.4667725 0.0086568972        24800    15.826719    2.1994814    13.627238    14.614404   0.78806711   -1.5101898  -0.17132595 -0.093717855 
   28700        0.005    1.4726396  -0.04156118        24800    15.809794    2.2082793    13.601514    14.576867   0.77876665   -1.4890014  -0.17436913 -0.090749097 
   28800        0.005    1.4488326 -0.012069162        24800     15.80349    2.1725798     13.63091    14.605704   0.76485371   -1.4875209  -0.16372612 -0.088400146 
   28900        0.005    1.4760573  0.022456632        24800    15.794552    2.2134043    13.581148     14.59836   0.72577243   -1.4975835  -0.15877887 -0.086622323 
   29000        0.005    1.4729351   0.02617731        24800    15.794168    2.2087224    13.585446    14.584944   0.72635265   -1.4685846  -0.17020451 -0.087062249 
   29100        0.005    1.4641289  0.036965307        24800     15.79761    2.1955172    13.602093    14.550411   0.75906154   -1.4702368   -0.1489585 -0.088184531 
   29200        0.005    1.4507237  0.007478877        24800    15.799862    2.1754156    13.624447     14.58427   0.76192262   -1.4731255  -0.15720842 -0.091412031 
   29300        0.005    1.4414275 0.0040163604        24800    15.787481    2.1614756    13.626006    14.610903   0.74342604   -1.4721331  -0.16474009  -0.09144966 
   29400        0.005    1.4584062 -0.0050114594        24800    15.791864    2.1869358    13.604928    14.596576   0.75181374   -1.4886267  -0.16492917 -0.089905781 
   29500        0.005    1.4767568 -0.026979428        24800    15.788713    2.2144533     13.57426    14.591401   0.74767977    -1.511832  -0.16514968 -0.087839416 
   29600        0.005    1.4309654 -0.00046275092        24800    15.794062    2.1457872    13.648275    14.616977   0.76219595   -1.4793995  -0.16479531 -0.086702714 
   29700        0.005    1.4405177 -0.021171704        24800    15.780751    2.1601113     13.62064    14.584735   0.74505591   -1.4686491   -0.1558155 -0.084685784 
   29800        0.005    1.4842051 -0.037091826        24800    15.772845    2.2256222    13.547223    14.546765   0.74359982   -1.5053307   -0.1527802 -0.085031327 
   29900        0.005    1.4527805  -0.03709921        24800    15.762552    2.1784998    13.584053    14.619699   0.72714254   -1.5150204  -0.16497326 -0.082795574 
   30000        0.005    1.4559295 -0.029305453        24800    15.767635    2.1832219    13.584414    14.610561   0.75276785   -1.5375347  -0.15912361 -0.082257208 
   30100        0.005    1.4473589 -0.011403484        24800    15.753625      2.17037    13.583255    14.627078   0.74060663   -1.5274687  -0.17265012 -0.084310346 
   30200        0.005    1.4600886 -0.021193327        24800    15.752038    2.1894585    13.562579    14.604933   0.73743482   -1.5284406  -0.16848239 -0.082865955 
   30300        0.005    1.4752979  0.017045857        24800    15.753189    2.2122656    13.540923    14.604391   0.75316638   -1.5727162  -0.16203134 -0.081886472 
   30400        0.005    1.4879161 0.0061439155        24800    15.744992    2.2311869    13.513805    14.590538   0.75557532   -1.5845644  -0.16384903 -0.083894276 
   30500        0.005     1.492416 0.0085705696        24800    15.740489    2.2379347    13.502554    14.599117   0.76326683   -1.5895389   -0.1814117 -0.088879386 
   30600        0.005     1.466126 -0.013426278        24800    15.731279    2.1985119    13.532767    14.654068   0.76951489   -1.6277053  -0.17301918 -0.090091561 
   30700        0.005    1.4852971 -0.007978988        24800    15.717409    2.2272597     13.49015    14.608905   0.77009304   -1.6200625  -0.17632687 -0.092458594 
   30800        0.005    1.4790159 -0.0043337923        24800    15.706858    2.2178408    13.489017    14.609502   0.74893276     -1.61805  -0.16343094 -0.087937125 
   30900        0.005    1.5042227 -0.019196605        24800    15.701941    2.2556393    13.446302    14.597216   0.74701569   -1.6318882  -0.17783264 -0.088208481 
   31000        0.005    1.4980103  0.046168768        24800    15.705191    2.2463236    13.458867    14.614987   0.77644489   -1.6840424  -0.16001773 -0.088504492 
   31100        0.005    1.4634836 -0.019042603        24800    15.718222    2.1945496    13.523673    14.626579    0.7870208   -1.6363414  -0.16144568  -0.09214055 
   31200        0.005    1.4716024  -0.02254109        24800    15.711856     2.206724    13.505132    14.599847   0.76282241   -1.5910037  -0.17079895 -0.095734399 
   31300        0.005    1.4520983 -0.021728394        24800    15.702006    2.1774768     13.52453    14.620553   0.77404474   -1.6070101  -0.16671411 -0.096344014 
   31400        0.005    1.4527644 0.0013225142        24800    15.688591    2.1784757    13.510115    14.605784   0.78573472   -1.6286155   -0.1589874 -0.093800819 
   31500        0.005    1.4734787 -0.0085179234        24800    15.685016    2.2095376    13.475478    14.592189   0.75493718   -1.6071073  -0.16916632 -0.095374049 
   31600        0.005    1.4737086 -0.0036987819        24800    15.675472    2.2098822    13.465589    14.613412   0.76632039   -1.6443299  -0.17228316 -0.097530321 
   31700        0.005    1.4749928  0.025289445        24800    15.672346     2.211808    13.460538    14.603737   0.76102791   -1.6384119  -0.17056138 -0.095253519 
   31800        0.005    1.4673089  0.030647405        24800    15.662883    2.2002858    13.462597    14.604294   0.74323866    -1.632215  -0.15742987 -0.095290733 
   31900        0.005    1.4637383  0.011049119        24800    15.664771    2.1949314    13.469839    14.618473    0.7563161   -1.6403523  -0.16967731 -0.094919994 
   32000        0.005    1.4517956 0.0072882746        24800    15.663808    2.1770229    13.486785    14.632979   0.75363991   -1.6280976  -0.17681182 -0.094924494 
   32100        0.005    1.4530527 -0.032434464        24800    15.659014     2.178908    13.480106    14.614889   0.77803524   -1.6573562  -0.16331805 -0.092143605 
   32200        0.005     1.432264 -0.020372795        24800    15.647146    2.1477345    13.499411    14.588466   0.76465296   -1.5938663  -0.17093687 -0.088904261 
   32300        0.005    1.4604039  0.015259231        24800    15.628421    2.1899314     13.43849    14.570599    0.7665627   -1.6302839  -0.18243496  -0.08595325 
   32400        0.005    1.4619996 -0.044249984        24800    15.614324    2.1923242       13.422    14.605852   0.75671378   -1.6755794      -0.1763 -0.088686946 
   32500        0.005    1.4774245   0.05486481        24800    15.611127    2.2154545    13.395673    14.606182    0.7523152   -1.6790068  -0.19421045  -0.08960731 
   32600        0.005    1.4422632  0.010551797        24800    15.607902    2.1627288    13.445174    14.626637   0.77489192   -1.6837972   -0.1839999 -0.088558451 
   32700        0.005    1.4489988 -0.029629103        24800    15.581046     2.172829    13.408217    14.612421   0.72559925   -1.6721638  -0.17109492  -0.08654407 
   32800        0.005    1.4880352  0.016140876        24800    15.576406    2.2313657     13.34504    14.570323    0.7197327   -1.6950956  -0.16301065 -0.086909203 
   32900        0.005    1.4632247  0.032269508        24800     15.57107    2.1941613    13.376909    14.574944    0.7548974   -1.6849741   -0.1806688 -0.087289759 
   33000        0.005    1.4334502   0.02982441        24800    15.573217    2.1495132    13.423704    14.613508   0.74217803   -1.6578119  -0.18460708 -0.089562941 
   33100        0.005     1.454723 0.0091483685        24800    15.568972    2.1814127     13.38756    14.587559   0.73972027   -1.6667639  -0.18150571 -0.091450202 
   33200        0.005    1.4421698 0.0076727335        24800    15.561565    2.1625887    13.398977    14.610738   0.76100757   -1.7017466  -0.18146281 -0.089559182 
   33300        0.005    1.4490174  0.013308554        24800    15.550015     2.172857    13.377158    14.598506   0.75026231    -1.708982  -0.17125287 -0.091375574 
   33400        0.005    1.4502175  0.021222987        24800    15.555383    2.1746565    13.380727    14.590458   0.74834928   -1.6876081  -0.17873856 -0.091733929 
   33500        0.005    1.4333012 -0.031873365        24800    15.543133    2.1492898    13.393843    14.608234   0.74670931   -1.7023683  -0.17016516 -0.088566179 
   33600        0.005    1.4491138 -0.043110464        24800     15.54948    2.1730015    13.376478     14.57473   0.75277302   -1.6955062  -0.16824563 -0.087273402 
   33700        0.005     1.432167 -0.015904622        24800    15.545985    2.1475891    13.398396    14.595614   0.76748847   -1.7041636  -0.17440124 -0.086142154 
   33800        0.005    1.4517043 -0.033008993        24800    15.531079     2.176886    13.354193    14.592957   0.74460194   -1.7179763  -0.17665991 -0.088729393 
   33900        0.005    1.4595002 -0.012576384        24800    15.511605    2.1885763    13.323028      14.5861   0.71103191   -1.7030115  -0.18274576 -0.088346911 
   34000        0.005    1.4479983 -0.034656791        24800    15.512788    2.1713287    13.341459    14.587708   0.72712266    -1.708928  -0.17733673 -0.087107271 
   34100        0.005    1.4544742 -0.049410314        24800    15.525308    2.1810396    13.344268    14.612067   0.73527837   -1.7463686  -0.16842792 -0.088280229 
   34200        0.005    1.4214731 -0.018841489        24800    15.512411    2.1315531    13.380858    14.593578   0.75136844   -1.7046511  -0.17132055 -0.088117223 
   34300        0.005    1.4611632  0.013625105        24800    15.523526    2.1910699    13.332456     14.57671   0.75316248   -1.7417023  -0.16933225  -0.08638157 
   34400        0.005    1.4509522  -0.04504419        24800    15.513646    2.1757583    13.337887    14.593094   0.74257723   -1.7304624  -0.17891829 -0.088402745 
   34500        0.005    1.4743184 -0.033953177        24800    15.498485    2.2107967    13.287688    14.583495   0.72962599   -1.7605025   -0.1755266 -0.089403988 
   34600        0.005    1.4381184 -0.033258868        24800    15.499873    2.1565135     13.34336     14.64174   0.74240504   -1.7787942  -0.17126361  -0.09072785 
   34700        0.005    1.4197083 -0.014216587        24800    15.520998    2.1289068    13.392092    14.582444   0.78872498    -1.715735  -0.17031077 -0.093031512 
   34800        0.005    1.4598376 -0.0068299505        24800    15.498974    2.1890822    13.309892     14.56354   0.73578459   -1.7216064  -0.17308614 -0.094739976 
   34900        0.005    1.4472091 0.0086976739        24800    15.490868    2.1701453    13.320723    14.601506   0.73048499   -1.7423597  -0.17514229 -0.093766196 
   35000        0.005    1.4468264 -0.0014852444        24800    15.490192    2.1695714     13.32062    14.561258   0.75119249   -1.7193413  -0.17884741 -0.093641293 
   35100        0.005    1.4383364 -0.052881021        24800    15.493782    2.1568404    13.336941     14.57658   0.75523761   -1.7234479  -0.17891496  -0.09251331 
   35200        0.005    1.4595844  0.023377728        24800    15.489655    2.1887026    13.300952    14.589017    0.7509855   -1.7620519  -0.18373345 -0.093264612 
   35300        0.005    1.4625558 -0.016165354        24800      15.4756    2.1931582    13.282442     14.57619   0.74306604   -1.7582317  -0.18372529  -0.09485698 
   35400        0.005    1.4754194  0.025174863        24800    15.471965    2.2124477    13.259518    14.591192   0.74359391   -1.7964636  -0.18453947 -0.094264564 
   35500        0.005    1.4331112  0.010198832        24800    15.468277    2.1490049    13.319272    14.576105   0.75560556   -1.7480859  -0.16952438 -0.094828745 
   35600        0.005    1.4431052 0.0041980294        24800      15.4524    2.1639913    13.288408    14.585028   0.74538289   -1.7542172  -0.18984366 -0.097941693 
   35700        0.005    1.4291544 -0.019388343        24800    15.439198    2.1430716    13.296127    14.560742   0.76940695   -1.7546079  -0.18171137 -0.097703269 
   35800        0.005    1.4129372 -0.0084163852        24800    15.448401    2.1187533    13.329647    14.576483   0.76522187   -1.7271707  -0.18652772 -0.098359567 
   35900        0.005    1.4109027 -0.013983172        24800    15.411051    2.1157025    13.295348    14.592385    0.7233572   -1.7301754  -0.19416149 -0.096057303 
   36000        0.005    1.4264052 -0.0048290293        24800    15.419296     2.138949    13.280347    14.580684   0.74021669   -1.7555652  -0.18646273 -0.098525668 
   36100        0.005    1.3932584 -0.0001899066        24800    15.428552    2.0892441    13.339308    14.588102   0.73674203   -1.7109431  -0.17615993 -0.098432239 
   36200        0.005    1.4102838 0.0035906609        24800    15.427426    2.1147744    13.312652    14.583321   0.72356672   -1.7111521  -0.18894389 -0.094139774 
   36300        0.005    1.4138906 -0.018120845        24800     15.42834     2.120183    13.308157    14.564257   0.73814917   -1.7196158  -0.18205973 -0.092573039 
   36400        0.005    1.4127782  0.015284618        24800    15.413758    2.1185148    13.295243    14.582329   0.74661296   -1.7684415  -0.17346736 -0.091790136 
   36500        0.005    1.4069662  -0.03226527        24800    15.404532    2.1097995    13.294732    14.579559   0.73625969   -1.7501727  -0.18013447 -0.090779653 
   36600        0.005    1.4160555  0.016794999        24800    15.403926    2.1234293    13.280497    14.547956   0.75580412   -1.7495914  -0.18346785 -0.090203882 
   36700        0.005    1.3730037 -0.015823154        24800    15.404847    2.0588715    13.345976    14.595484   0.75960075   -1.7344229  -0.18531295 -0.089372981 
   36800        0.005    1.4082545  0.015508158        24800    15.386863    2.1117314    13.275132     14.57915   0.73775817    -1.757955  -0.19178305 -0.092038198 
   36900        0.005    1.4236455 -0.026103261        24800    15.380562    2.1348108    13.245751      14.5704   0.73409463   -1.7822779  -0.18091783 -0.095547902 
   37000        0.005    1.4152678  0.012730336        24800    15.389888    2.1222481     13.26764     14.58605   0.72957826   -1.7742198   -0.1787568 -0.095011626 
   37100        0.005    1.4448043  0.044033792        24800    15.383719    2.1665392    13.217179    14.535371   0.72854502   -1.7645091  -0.18862924 -0.093597992 
   37200        0.005     1.445488  0.014723602        24800    15.383484    2.1675645     13.21592    14.566362   0.74225772   -1.8142094  -0.18436644 -0.094123849 
   37300        0.005    1.4287822  -0.04316153        24800    15.391227    2.1425134    13.248713    14.580654   0.74071995   -1.7985384  -0.18143913 -0.092682707 
   37400        0.005    1.4029403  0.056460926        24800    15.380763    2.1037625       13.277    14.591959   0.73862829   -1.7884754  -0.17587287 -0.089239131 
   37500        0.005    1.4039597 -0.084926478        24800    15.376874    2.1052912    13.271582    14.599321   0.73872598   -1.7929904  -0.18066726 -0.092807186 
   37600        0.005    1.3970096  0.034320844        24800    15.365907    2.0948692    13.271038    14.595805   0.72217396   -1.7647459  -0.19099057 -0.091204681 
   37700        0.005    1.4096131 -0.0070922727        24800    15.373116    2.1137686    13.259347      14.5693    0.7653787   -1.7995212  -0.18621189 -0.089598398 
   37800        0.005    1.4040096 -0.0034045723        24800    15.350623    2.1053659    13.245257    14.565279   0.73424337   -1.7853565  -0.17630273 -0.092605779 
   37900        0.005     1.419531 -0.0068032187        24800    15.349685    2.1286409    13.221044    14.597253   0.72996134   -1.8173146  -0.19470873 -0.094147261 
   38000        0.005    1.4223051  0.025035944        24800    15.348669    2.1328008    13.215868    14.573704   0.74363945   -1.8233079  -0.18464403 -0.093523177 
   38100        0.005    1.4227179 -0.048439806        24800    15.344546    2.1334199    13.211126    14.578869   0.74402704   -1.8266096  -0.19010343 -0.095057107 
   38200        0.005    1.4377475  0.039267781        24800    15.336818    2.1559573    13.180861    14.554826    0.7409429   -1.8376098  -0.18587303 -0.091425897 
   38300        0.005    1.4245624  -0.01840596        24800    15.335316    2.1361857     13.19913    14.584695   0.73453135   -1.8381094   -0.1881345 -0.093852534 
   38400        0.005    1.4170014 0.0010207924        24800    15.337217    2.1248478     13.21237     14.57137   0.75266829   -1.8328287  -0.18626013 -0.092580169 
   38500        0.005    1.4329596 -0.0030983016        24800    15.324539    2.1487777    13.175762    14.563566   0.75333443   -1.8533711  -0.19514971 -0.092618495 
   38600        0.005     1.412333 0.0061221484        24800    15.301824    2.1178472    13.183976    14.588787   0.71909963   -1.8425921  -0.19088562 -0.090432553 
   38700        0.005    1.4096534   0.01324348        24800    15.316497    2.1138291    13.202668    14.585937   0.74309634   -1.8434581  -0.19009204 -0.092815099 
   38800        0.005    1.4378091 -0.0026585397        24800    15.312945    2.1560497    13.156896      14.5649   0.77413883    -1.908771  -0.17876048 -0.094611695 
   38900        0.005    1.4204574  0.029612575        24800    15.288851      2.13003    13.158821    14.594175   0.73387591   -1.8856387  -0.18739068 -0.096201097 
   39000        0.005    1.4289082 -0.0079158196        24800    15.298337    2.1427023    13.155635    14.557921   0.75299165   -1.8773811  -0.18294039 -0.094956674 
   39100        0.005    1.4335255  0.033419879        24800    15.297653    2.1496263    13.148027       14.559   0.74563433   -1.8759145  -0.18783359 -0.092859401 
   39200        0.005    1.4142688 -0.032615476        24800    15.296751    2.1207501    13.176001    14.559015   0.76004076   -1.8600762  -0.18843666 -0.094541984 
   39300        0.005    1.3990066  0.044995325        24800    15.293937    2.0978638    13.196073    14.556849   0.76614388   -1.8509482  -0.18118262 -0.094789162 
   39400        0.005     1.431257 -0.023468252        24800    15.289771    2.1462245    13.143546    14.552992   0.74643399   -1.8715425  -0.18658389 -0.097753182 
   39500        0.005    1.4223661  -0.02856494        24800    15.294583    2.1328922    13.161691    14.578726   0.76551569   -1.8869967  -0.19761608 -0.097937951 
   39600        0.005    1.4345238 0.0022007428        24800    15.270938    2.1511232    13.119815    14.556677   0.73137591   -1.8773614  -0.19619079 -0.094685984 
   39700        0.005    1.4013132  0.039553539        24800    15.269077    2.1013227    13.167754    14.585598   0.73897032   -1.8692507  -0.19506876 -0.092494743 
   39800        0.005    1.4223672  0.027461403        24800    15.261573     2.132894    13.128679    14.553537   0.72611012   -1.8662797  -0.19210296 -0.092584716 
   39900        0.005    1.3850595 -0.029062845        24800    15.255522    2.0769497    13.178572    14.579185    0.7331724   -1.8538851  -0.18648211 -0.093417914 
   40000        0.005    1.4290551  0.015998984        24800    15.269674    2.1429227    13.126751    14.573453   0.74750424    -1.907735  -0.19476435 -0.091707236 
   40100        0.005    1.4163988 0.00016347614        24800    15.249245     2.123944    13.125301    14.580494   0.74965942    -1.927478  -0.18421563 -0.093157882 
   40200        0.005    1.4355637 0.0057520668        24800    15.254721    2.1526826    13.102039    14.549495   0.76464734   -1.9308342  -0.18595178 -0.095317978 
   40300        0.005    1.4191058 -0.024214843        24800    15.264195    2.1280033    13.136192    14.592732   0.78350907    -1.959434   -0.1876384 -0.092976464 
   40400        0.005    1.4089466  0.014387408        24800    15.253618    2.1127692    13.140849    14.574397   0.75723084   -1.9097056  -0.18644252  -0.09463058 
   40500        0.005     1.422329  -0.04987677        24800    15.236779    2.1328367    13.103942    14.569554   0.74362062   -1.9246005   -0.1924132 -0.092219281 
   40600        0.005    1.4184928 0.0079893757        24800    15.233471    2.1270841    13.106387    14.571011   0.73570465   -1.9230936  -0.18617076 -0.091064063 
   40700        0.005    1.4040549 -0.027289996        24800    15.221029    2.1054339    13.115595    14.591455   0.72724972   -1.9313991   -0.1836866 -0.088023859 
   40800        0.005    1.3885707  0.010004418        24800    15.215822    2.0822148    13.133607    14.579207   0.73490443   -1.9057489  -0.19133374 -0.083422159 
   40900        0.005    1.3856868 -0.031381765        24800    15.218957    2.0778903    13.141066    14.580591   0.73307256   -1.9000244  -0.18721529 -0.085357277 
   41000        0.005    1.3640181 -0.041651141        24800    15.219495    2.0453972    13.174098     14.59085   0.73857128   -1.8647132  -0.19716721 -0.093443277 
   41100        0.005    1.3673527 -0.028349402        24800    15.225352    2.0503975    13.174954    14.589954   0.75593981   -1.8882485  -0.18662571 -0.096065879 
   41200        0.005    1.3921595 -0.021454482        24800    15.213105    2.0875963    13.125508    14.579296   0.74697039   -1.9194988  -0.18506438 -0.096194868 
   41300        0.005    1.3699923 0.0059623482        24800    15.198813    2.0543558    13.144457    14.581902   0.73137656   -1.8954374  -0.17810669 -0.095277383 
   41400        0.005     1.405163 -0.0054638469        24800      15.1888    2.1070956    13.081705    14.540685   0.72607504   -1.9100139  -0.17803628 -0.097005575 
   41500        0.005    1.4069818 -0.0083451665        24800    15.198137    2.1098229    13.088314    14.534861   0.75154998   -1.9119471  -0.18782111  -0.09832896 
   41600        0.005    1.3902696 -0.016959066        24800    15.197247    2.0847624    13.112485    14.567877   0.74900283   -1.9197812  -0.18943793 -0.095176235 
   41700        0.005    1.4161239 -0.027519433        24800    15.194154    2.1235319    13.070622    14.556677   0.74091782   -1.9443315  -0.18654504 -0.096096862 
   41800        0.005    1.4187573 0.0071367954        24800    15.185914    2.1274807    13.058433     14.58497   0.73324919   -1.9678409   -0.1942247 -0.097720826 
   41900        0.005    1.3988149  0.019811469        24800    15.178431    2.0975763    13.080855    14.566859   0.72524212   -1.9228269  -0.19020141 -0.098217543 
   42000        0.005    1.3793481 -0.043873241        24800    15.181943    2.0683851    13.113558    14.550338   0.73688978   -1.8942545  -0.18475047  -0.09466555 
   42100        0.005     1.375131 -0.011372264        24800    15.169152    2.0620614     13.10709    14.572714   0.72440242   -1.9070399   -0.1903198 -0.092666741 
   42200        0.005    1.3882714 -0.031171104        24800    15.167595     2.081766    13.085829    14.578371   0.72788784   -1.9275347  -0.19738788 -0.095507664 
   42300        0.005    1.4033087 0.0026679533        24800    15.155516     2.104315    13.051201    14.591947   0.70606289   -1.9609626  -0.19260617 -0.093240953 
   42400        0.005    1.3989696 -0.031953228        24800    15.164127    2.0978083    13.066319    14.570499   0.72793831   -1.9508522  -0.18893586  -0.09233007 
   42500        0.005    1.4154859  0.039403193        24800    15.155381    2.1225751    13.032806    14.573166   0.72284872   -1.9732209  -0.19530823 -0.094679694 
   42600        0.005    1.3948482  0.044451994        24800    15.136178    2.0916282     13.04455    14.585755   0.70934059   -1.9626502  -0.19133961 -0.096555502 
   42700        0.005    1.3901681 -0.030243999        24800    15.134172    2.0846101    13.049562    14.572415   0.71757785   -1.9613444  -0.18477493 -0.094311985 
   42800        0.005    1.4080154  0.010959795        24800    15.147026    2.1113729    13.035653    14.556916   0.73261883   -1.9596319  -0.20195348  -0.09229652 
   42900        0.005    1.3832425 -0.026004002        24800    15.144196    2.0742249    13.069971    14.568622   0.73595465   -1.9483791  -0.19290687 -0.093318995 
   43000        0.005    1.4031178   0.02285068        24800    15.121855    2.1040286    13.017826    14.560318   0.72054651   -1.9697354  -0.19933504  -0.09396745 
   43100        0.005    1.4127816 0.0039608455        24800    15.132058    2.1185199    13.013538    14.571238   0.73463386   -2.0057958   -0.1942312 -0.092306801 
   43200        0.005     1.388713 -0.00037424617        24800    15.113193    2.0824282    13.030765    14.565571   0.72743071   -1.9856362  -0.18928295 -0.087317385 
   43300        0.005    1.3901922 0.00097525168        24800    15.127859    2.0846463    13.043213    14.570539   0.73580439   -1.9871775  -0.18603239 -0.089920339 
   43400        0.005    1.4076732   0.02545239        24800    15.114296    2.1108597    13.003437    14.572314   0.74092795   -2.0390512  -0.18320574 -0.087548316 
   43500        0.005    1.3897895  0.033210708        24800     15.10295    2.0840424    13.018908    14.569679    0.7309884   -1.9944661  -0.19824436 -0.089048895 
   43600        0.005    1.4194721  0.061886643        24800    15.103675    2.1285526    12.975123    14.559247   0.72931614   -2.0275583  -0.19778605   -0.0880964 
   43700        0.005    1.3975431  0.010259628        24800    15.109527    2.0956692    13.013858      14.5787   0.75210307   -2.0209541  -0.20016335 -0.095827653 
   43800        0.005    1.3863365 -0.027062315        24800    15.078568    2.0788645    12.999703    14.596274    0.7134616   -2.0143744  -0.19832179 -0.097336557 
   43900        0.005    1.3697959 -0.0025156695        24800    15.093984    2.0540613    13.039922     14.55746     0.751935   -1.9755853  -0.19546036 -0.098427011 
   44000        0.005    1.3697862  0.011199667        24800    15.078824    2.0540467    13.024777    14.576832   0.73222516   -1.9864357  -0.19941124 -0.098432785 
   44100        0.005     1.401067 -0.018899929        24800    15.070376    2.1009534    12.969422    14.566752   0.72607537   -2.0265255  -0.19728168 -0.099597878 
   44200        0.005    1.3901001  0.021938536        24800    15.056673    2.0845082    12.972164      14.5787   0.71082508   -2.0267495  -0.19119746 -0.099413371 
   44300        0.005    1.4076777 -0.010388692        24800    15.070749    2.1108664    12.959883    14.554711   0.73935189   -2.0304134  -0.20475523 -0.099011098 
   44400        0.005    1.3683121 0.0038501038        24800    15.062443    2.0518362    13.010607    14.595189   0.74286334   -2.0378005  -0.19168396 -0.097961076 
   44500        0.005    1.3984754  0.047865656        24800    15.077812    2.0970672    12.980745    14.545548   0.75485294   -2.0266175  -0.19402728 -0.099011627 
   44600        0.005    1.3809662 -0.011966667        24800    15.066944    2.0708115    12.996132    14.552324   0.72577638   -1.9901628  -0.19450891 -0.097296524 
   44700        0.005    1.3672131 0.00089897561        24800    15.062796    2.0501882    13.012608    14.576462   0.73309884   -2.0035434  -0.19774551 -0.095664335 
   44800        0.005    1.3762929 -0.030999807        24800    15.056806    2.0638038    12.993002    14.562146    0.7396754   -2.0354889  -0.18450464 -0.088825488 
   44900        0.005    1.4089252  -0.03734427        24800    15.054908    2.1127371    12.942171    14.583605   0.73509128   -2.0917128  -0.19802697  -0.08678642 
[...]
  129800        0.005    1.1761067 0.00092759405        24800    13.516081    1.7636169    11.752464    14.473954   0.66041525   -3.0114078  -0.26604315  -0.10445446 
  129900        0.005    1.1634549 0.0011207964        24800     13.51985    1.7446451    11.775205    14.499457   0.65973835   -3.0225768  -0.25957753  -0.10183627 
  130000        0.005    1.1965055 -0.011845982        24800    13.511902    1.7942057    11.717697    14.477601    0.6582634    -3.053871  -0.26192245  -0.10237469 
  130100        0.005     1.179518 -0.033582441        24800    13.516677    1.7687323    11.747945    14.473004   0.66147392   -3.0188799  -0.26331206  -0.10434129 
  130200        0.005    1.1614804 -0.038479874        24800     13.53506    1.7416842    11.793376    14.477448   0.70265479   -3.0308414  -0.25090347  -0.10498256 
  130300        0.005    1.1806064 0.0069462035        24800    13.523242    1.7703644    11.752878    14.474071   0.69158266   -3.0515837  -0.26039456  -0.10079737 
  130400        0.005    1.1932453   0.01800808        24800     13.51103    1.7893169    11.721713     14.46879   0.66398473   -3.0449817  -0.26247659  -0.10360388 
  130500        0.005     1.182598  0.012479808        24800    13.510216    1.7733508    11.736865    14.464014   0.65700717    -3.022918  -0.25823191  -0.10300663 
  130600        0.005    1.1769243 -0.0058167754        24800    13.516505    1.7648429    11.751662    14.494825   0.66618059   -3.0521497  -0.25216052  -0.10503375 
  130700        0.005     1.174585 -0.038851943        24800    13.514277     1.761335    11.752942    14.477705   0.67152426   -3.0438885  -0.24835596  -0.10404327 
  130800        0.005    1.1748473  -0.02089965        24800    13.516781    1.7617283    11.755053    14.480926   0.66849809   -3.0450761  -0.24592547  -0.10337034 
  130900        0.005    1.1849962 -0.0036876419        24800    13.512528     1.776947    11.735581    14.475666   0.65556942   -3.0293614  -0.26148383  -0.10480855 
  131000        0.005    1.2180976  0.010489355        24800     13.51061    1.8265839    11.684026    14.486075   0.64241854   -3.0784794  -0.25885013  -0.10713766 
  131100        0.005    1.1835556 0.0050001417        24800     13.51886    1.7747869    11.744073    14.470412   0.66051181   -3.0176997  -0.26177752  -0.10737358 
  131200        0.005    1.2004894  0.011609096        24800    13.519126    1.8001797    11.718947    14.469428   0.66683186   -3.0509007   -0.2600418  -0.10637088 
  131300        0.005    1.1987017 -0.035605705        24800    13.514894     1.797499    11.717395    14.482753   0.66347265   -3.0714125  -0.25139058  -0.10602728 
  131400        0.005    1.1883229 -0.016407473        24800    13.524553    1.7819356    11.742618    14.477696   0.66722254   -3.0413183  -0.25443328  -0.10654969 
  131500        0.005    1.1788378 -0.054353054        24800    13.514502    1.7677123     11.74679    14.467718   0.65458536   -3.0144729  -0.25415452  -0.10688591 
  131600        0.005    1.1686891 -0.0033226769        24800    13.529015    1.7524939    11.776521    14.475271   0.67128036   -3.0063783  -0.26016589  -0.10348554 
  131700        0.005     1.174141  0.013756454        24800    13.520131    1.7606692    11.759462    14.473473   0.65614323   -3.0127158  -0.25662889  -0.10081033 
  131800        0.005    1.1819802 -0.041370384        24800    13.532747    1.7724245    11.760323    14.495009   0.65777654   -3.0421488  -0.24996912  -0.10034461 
  131900        0.005    1.1854629 -0.0075582716        24800    13.541285    1.7776469    11.763638     14.47256   0.67669166   -3.0294677  -0.25554336  -0.10060232 
  132000        0.005    1.2000917 -0.020079586        24800    13.535849    1.7995833    11.736266    14.471261   0.66834543   -3.0476603  -0.25634993 -0.099330454 
  132100        0.005    1.1772859 -0.010590613        24800    13.540111    1.7653852    11.774726    14.480615   0.67832207   -3.0217139  -0.26236493  -0.10013221 
  132200        0.005    1.1853429 -0.028509109        24800    13.537717     1.777467     11.76025    14.498449   0.67228766   -3.0539237  -0.25630767  -0.10025565 
  132300        0.005    1.1945796  0.017296146        24800    13.529917    1.7913178    11.738599    14.501514   0.66098796   -3.0613321  -0.26260564 -0.099964788 
  132400        0.005     1.186118 -0.017526357        24800    13.530835    1.7786293    11.752205    14.491129     0.641956   -3.0215868  -0.26050644 -0.098786667 
  132500        0.005     1.199173 -0.016401234        24800    13.528904    1.7982056    11.730699    14.481384   0.63879679   -3.0345287  -0.25683785 -0.098115967 
  132600        0.005    1.2003665 0.0025638347        24800    13.511865    1.7999954    11.711869    14.486776    0.6065394    -3.029985   -0.2541528 -0.097308282 
  132700        0.005    1.1800181 -0.052504495        24800    13.513286    1.7694822    11.743804    14.471612   0.62951894   -3.0045901  -0.25418142 -0.098554739 
  132800        0.005    1.1458965 -0.040855964        24800    13.510987    1.7183156    11.792672     14.48878    0.6279631   -2.9749186  -0.24944889 -0.099703828 
  132900        0.005    1.1516976 -0.056653647        24800    13.510669    1.7270146    11.783654    14.494833   0.64371423   -2.9965976  -0.25695125  -0.10134402 
  133000        0.005    1.1759844 0.0045940064        24800    13.507395    1.7634335    11.743961    14.471205   0.65167262   -3.0195439  -0.25731586   -0.1020566 
  133100        0.005    1.2028337 -0.010005328        24800    13.496245    1.8036951     11.69255    14.471564   0.64561732   -3.0590813  -0.25963924  -0.10591102 
  133200        0.005    1.1703779 -0.055490318        24800    13.500547    1.7550264     11.74552    14.509448   0.64992491    -3.045064  -0.26307139  -0.10571712 
  133300        0.005    1.1863719  0.037973571        24800    13.491612    1.7790099    11.712602    14.480788   0.63423403   -3.0309533  -0.26455616  -0.10691053 
  133400        0.005    1.1820984 -0.065505318        24800     13.50268    1.7726016    11.730078    14.484887   0.66076147   -3.0549432  -0.25322479  -0.10740255 
  133500        0.005    1.1747376 -0.032608051        24800     13.49472    1.7615639    11.733156    14.503422    0.6535757   -3.0576322  -0.25884242  -0.10736641 
  133600        0.005     1.184851 -0.042331834        24800    13.508954    1.7767293    11.732225    14.462318   0.66884906   -3.0470483  -0.24518177   -0.1067127 
  133700        0.005    1.1894799 -0.048043832        24800    13.503279    1.7836706    11.719609    14.474666   0.65777588   -3.0528407  -0.25437653  -0.10561622 
  133800        0.005    1.2147085 0.0097407271        24800    13.504549    1.8215017    11.683047    14.461763   0.65982173     -3.07203  -0.26057761  -0.10593034 
  133900        0.005    1.2130578 -0.053191881        24800    13.495936    1.8190264     11.67691     14.49893   0.65829795   -3.1147534  -0.26240927  -0.10315509 
  134000        0.005    1.1636675  -0.04082012        24800    13.502535    1.7449638    11.757571    14.503802   0.66807917   -3.0529168  -0.25843276  -0.10296035 
  134100        0.005    1.1682442 -0.015315285        24800    13.495467    1.7518269     11.74364    14.487098   0.64987579   -3.0345383  -0.25530467  -0.10349104 
  134200        0.005    1.1587597 -0.013430826        24800    13.503872    1.7376044    11.766268    14.477168   0.68344061   -3.0321416  -0.25750548  -0.10469371 
  134300        0.005    1.1794683 -0.009034244        24800    13.496313    1.7686577    11.727656    14.487056   0.65720526   -3.0485025  -0.26495402   -0.1031492 
  134400        0.005    1.1960478 0.0041833552        24800    13.502878    1.7935194    11.709358    14.480826   0.65488412   -3.0623676    -0.263414   -0.1005701 
  134500        0.005    1.1854588 4.8247042e-05        24800    13.499511    1.7776407     11.72187    14.494645   0.66101681   -3.0617042  -0.26950178  -0.10258599 
  134600        0.005    1.2157069 -0.049532274        24800    13.490077    1.8229989    11.667078    14.474303   0.64561808   -3.0870599  -0.26281911  -0.10296338 
  134700        0.005    1.1862481 -0.028338895        24800    13.492343    1.7788243    11.713519    14.481535   0.65591661   -3.0552855  -0.26396678  -0.10468067 
  134800        0.005    1.1835553 -0.001363551        24800    13.497634    1.7747864    11.722848    14.484623   0.66646254   -3.0576936  -0.26670451  -0.10383937 
  134900        0.005    1.1814805 -0.020005261        24800    13.499933    1.7716751    11.728258    14.449858   0.67495958   -3.0364607  -0.25658117  -0.10351793 
  135000        0.005    1.1785726 -0.027378785        24800    13.489002    1.7673147    11.721687     14.47107    0.6461833   -3.0317793  -0.25766778  -0.10611907 
  135100        0.005    1.1828942 -0.034045434        24800    13.500079     1.773795    11.726284    14.485264   0.66424683   -3.0632776  -0.25535989   -0.1045892 
  135200        0.005    1.1598987 -0.030932088        24800    13.494742    1.7393124     11.75543    14.497711    0.6569356   -3.0348595  -0.26036736   -0.1039901 
  135300        0.005     1.170817  -0.03567872        24800    13.496391    1.7556848    11.740706    14.486804   0.64352227   -3.0209165  -0.26359407  -0.10510951 
  135400        0.005    1.1949119 -0.020152134        24800    13.494534     1.791816    11.702718    14.455356   0.66192612   -3.0538055  -0.25491089  -0.10584794 
  135500        0.005      1.18002 -0.0084464379        24800    13.496864    1.7694851    11.727379      14.4673   0.67388785   -3.0514778  -0.25610149  -0.10622953 
  135600        0.005    1.2024507 -0.0036776486        24800    13.500977    1.8031208    11.697856    14.488498    0.6664236   -3.0990696  -0.25197916  -0.10601698 
  135700        0.005    1.2185685 -0.0010641166        24800    13.497148      1.82729    11.669858    14.475517    0.6675869   -3.1072734  -0.25899118  -0.10698184 
  135800        0.005    1.1802621 -0.026370539        24800    13.486567     1.769848    11.716719    14.495383   0.65064641   -3.0668184  -0.25688552  -0.10560655 
  135900        0.005    1.1910375 -0.034003689        24800    13.496939    1.7860062    11.710933    14.463759   0.66135707   -3.0616222  -0.24961138  -0.10294984 
  136000        0.005    1.1727859 0.0083265506        24800    13.488085    1.7586372    11.729448    14.498282   0.62679434   -3.0463286  -0.24813756  -0.10116194 
  136100        0.005    1.1645314 -0.0041033254        24800    13.483348    1.7462593    11.737088    14.486313   0.64466544   -3.0448094  -0.24723219  -0.10184835 
  136200        0.005    1.1871246 -0.0007097995        24800    13.474096    1.7801387    11.693957    14.480844   0.63051831   -3.0549828  -0.25734839  -0.10507447 
  136300        0.005     1.173277 -0.0011256894        24800    13.470283    1.7593737    11.710909    14.482367   0.62677012   -3.0300786  -0.26198306  -0.10616577 
  136400        0.005    1.1866572  0.013631938        24800    13.476891    1.7794377    11.697454    14.458477   0.64743926   -3.0481782  -0.25462905  -0.10565572 
  136500        0.005    1.1521215 -0.029162518        24800    13.485414    1.7276501    11.757764    14.498992   0.65859531   -3.0403648  -0.25492869  -0.10452979 
  136600        0.005    1.1703429 -0.030126704        24800    13.481789    1.7549738    11.726815     14.50327   0.65014129   -3.0657802  -0.25616251  -0.10465289 
  136700        0.005    1.1605211  0.028273044        24800    13.466605    1.7402458    11.726359    14.480324   0.63278004   -3.0247746  -0.25298726  -0.10898332 
  136800        0.005    1.1719412  0.025684028        24800    13.483133    1.7573706    11.725762    14.487824   0.66666848   -3.0593086  -0.25939982  -0.11002216 
  136900        0.005    1.1760974  -0.02269429        24800    13.476241     1.763603    11.712638    14.479221   0.64206997   -3.0403427  -0.26056087   -0.1077489 
  137000        0.005    1.2218691 -0.016984005        24800    13.484575    1.8322394    11.652336    14.487374    0.6646928   -3.1227605  -0.26955696  -0.10741361 
  137100        0.005    1.2068119 -0.046983405        24800     13.47796    1.8096606      11.6683    14.488693   0.65051503   -3.0917746  -0.27144415  -0.10768937 
  137200        0.005    1.1859574 -0.0013922677        24800    13.488128    1.7783884    11.709739    14.509693   0.65846792   -3.0823566  -0.26972669  -0.10633865 
  137300        0.005    1.1867506 0.0030613005        24800    13.475154    1.7795779    11.695576    14.474396   0.67052729   -3.0875876  -0.25812157   -0.1036382 
  137400        0.005    1.1832347 -0.014806929        24800    13.468812    1.7743057    11.694506    14.498882   0.65202325   -3.0954474  -0.25746399  -0.10348764 
  137500        0.005    1.1890346 -0.025548629        24800    13.469267    1.7830027    11.686265    14.485807   0.65619608   -3.0892428  -0.26377091  -0.10272444 
  137600        0.005    1.1644153 -0.022976633        24800    13.462475    1.7460853    11.716389    14.473357   0.66575909   -3.0668678  -0.25434895  -0.10150938 
  137700        0.005    1.1602778 -0.076081851        24800    13.467348    1.7398809    11.727467     14.48589   0.67423977   -3.0728075  -0.26080851 -0.099046227 
  137800        0.005    1.1875217  0.010578852        24800    13.460112    1.7807342    11.679378    14.463608   0.67254312   -3.0921813  -0.26463738 -0.099954514 
  137900        0.005    1.1864233 -0.045989941        24800    13.459095     1.779087    11.680008    14.474421   0.64674675   -3.0866418  -0.25611237 -0.098406287 
  138000        0.005    1.1769725 -0.012371165        24800    13.451701    1.7649152    11.686786    14.469614   0.65324624   -3.0805054  -0.25599177 -0.099577489 
  138100        0.005    1.1925289 -0.036624291        24800    13.456155    1.7882426    11.667913    14.485296   0.66028297   -3.1120156   -0.2665071 -0.099143699 
  138200        0.005    1.1559263 -0.082075667        24800    13.459108    1.7333557    11.725753    14.498707   0.65831444   -3.0833309  -0.24724474  -0.10069318 
  138300        0.005    1.1517659 -0.032520969        24800    13.460418     1.727117    11.733301    14.470485   0.65120067   -3.0327065  -0.25480245  -0.10087582 
  138400        0.005    1.1554353 -0.017573226        24800    13.458917    1.7326193    11.726297    14.475684    0.6426754   -3.0363736  -0.25696356 -0.098725164 
  138500        0.005     1.160791 -0.047636945        24800    13.447567    1.7406504    11.706917    14.483943   0.63462206   -3.0584483  -0.25474913 -0.098451237 
  138600        0.005    1.1551823 -0.064678997        24800    13.454672    1.7322399    11.722432    14.494159   0.65885105   -3.0733363   -0.2577041 -0.099537612 
  138700        0.005    1.1723926 -0.0045646696        24800     13.45363    1.7580475    11.695582    14.448107   0.65326392   -3.0474783  -0.25813742  -0.10017326 
  138800        0.005     1.159185  -0.03190685        24800    13.468782    1.7382421     11.73054    14.470894   0.67348558   -3.0583726  -0.25309579  -0.10237109 
  138900        0.005    1.1762899 -0.011395204        24800    13.458231    1.7638917    11.694339    14.481766   0.65818895   -3.0854739  -0.25696767  -0.10317477 
  139000        0.005    1.1792251 -0.050533819        24800    13.446275     1.768293    11.677982    14.491973   0.65690733   -3.1098467    -0.257735  -0.10331627 
  139100        0.005    1.1738656  0.019158635        24800    13.440537    1.7602562    11.680281    14.466153   0.65650994   -3.0848635  -0.25437584  -0.10314311 
  139200        0.005    1.1584667  -0.02451089        24800    13.443797    1.7371651    11.706632    14.493926   0.63829036   -3.0671447  -0.25684093  -0.10159927 
  139300        0.005    1.1680451 -0.015501864        24800    13.436994    1.7515282    11.685465    14.491682   0.64593742   -3.0910594  -0.26053468   -0.1005602 
  139400        0.005    1.1613847 -0.00089256046        24800    13.429898    1.7415407    11.688357    14.455923   0.64847309   -3.0508064  -0.26373683  -0.10149514 
  139500        0.005    1.1486051 -0.053145689        24800     13.42508    1.7223771    11.702703    14.470535   0.63607043   -3.0488472  -0.25418225  -0.10087237 
  139600        0.005    1.1350405 -0.0096599262        24800    13.428412    1.7020365    11.726376    14.470801   0.64125468   -3.0302077  -0.25457424  -0.10089829 
  139700        0.005    1.1532762 -0.024879308        24800    13.427735    1.7293817    11.698353    14.484023   0.64748217   -3.0690805  -0.26356943  -0.10050133 
  139800        0.005    1.1705852 -0.027683742        24800    13.422261    1.7553371    11.666924    14.490605   0.63953207   -3.0870413  -0.27596711  -0.10020467 
  139900        0.005    1.1781416 -0.025236702        24800    13.431844    1.7666684    11.665176    14.472318   0.65987434   -3.1048184   -0.2621313  -0.10006714 
  140000        0.005    1.1561241 0.0081354165        24800    13.422215    1.7336523    11.688563    14.489971    0.6447501   -3.0790514  -0.26416899  -0.10293842 
  140100        0.005    1.1581636 -0.028578243        24800    13.424177    1.7367105    11.687467    14.460064   0.65533063   -3.0621608  -0.26262122  -0.10314627 
  140200        0.005    1.1763224 -0.033553367        24800     13.41222    1.7639403    11.648279    14.450356   0.63819033    -3.081007  -0.25860658  -0.10065328 
  140300        0.005    1.1381152 -0.019542814        24800    13.426284    1.7066472    11.719637      14.4847   0.66327511   -3.0580311  -0.26786433   -0.1024432 
  140400        0.005    1.1453937 -0.046149939        24800    13.422289    1.7175616    11.704727     14.49217   0.64487562   -3.0671372  -0.26182823  -0.10335278 
  140500        0.005    1.1836433 -0.0096548799        24800    13.412821    1.7749184    11.637903    14.458402   0.63401941   -3.0855255  -0.26628537  -0.10270811 
  140600        0.005    1.1685584 -0.024848084        24800    13.424956     1.752298    11.672658    14.483271   0.65503833   -3.1079917  -0.25518345  -0.10247554 
  140700        0.005    1.1760061 -0.012939742        24800    13.426895    1.7634661    11.663429    14.470624   0.66989887   -3.1234532  -0.24919811  -0.10444238 
  140800        0.005    1.1907875  0.015973472        24800    13.425038    1.7856313    11.639406    14.456135   0.67808216   -3.1208485  -0.26969268  -0.10426999 
  140900        0.005    1.1571458  0.012753571        24800    13.423202    1.7351843    11.688018    14.463004   0.67151344   -3.0818141  -0.25966447  -0.10502073 
  141000        0.005    1.1360961 -0.036992341        24800     13.40707    1.7036195    11.703451    14.482449   0.65269758   -3.0674203  -0.26014692  -0.10412916 
  141100        0.005    1.1577543 -0.019758528        24800    13.410251    1.7360968    11.674154    14.494366   0.65364636   -3.1035784  -0.26503983  -0.10524011 
  141200        0.005    1.1737379 -0.032465592        24800    13.399807    1.7600648    11.639742    14.461543   0.64311965   -3.0871987  -0.27177564  -0.10594649 
  141300        0.005    1.1300571 -0.014681455        24800    13.401094    1.6945638     11.70653    14.484847   0.63842802   -3.0509342   -0.2590559  -0.10675419 
  141400        0.005    1.1523313 -0.0016110542        24800    13.408296    1.7279648    11.680332    14.489876   0.64154503   -3.0852364   -0.2576729  -0.10818033 
  141500        0.005    1.1636615   -0.0446311        24800    13.407861    1.7449548    11.662907    14.476391   0.66536543   -3.1262678  -0.24816269  -0.10441907 
  141600        0.005    1.1655878 0.0021173515        24800    13.403562    1.7478434    11.655719    14.464944   0.65404773    -3.098808  -0.25908094  -0.10538457 
  141700        0.005    1.1816549 -0.046135549        24800    13.411172    1.7719366    11.639235     14.46488   0.63594631   -3.1019157  -0.25494307  -0.10473218 
  141800        0.005    1.1832191 -0.019193699        2480