ITEM: TIMESTEP
11000
ITEM: NUMBER OF ATOMS
750
ITEM: BOX BOUNDS pp pp ff
0 15
0 15
0 22
ITEM: ATOMS id type q x y z 
306 2 0 2.39347 0.723624 2.71545 
321 2 0 3.02015 2.9395 1.01871 
323 2 0 2.07212 3.09443 1.35426 
325 2 0 1.96847 2.55776 2.12998 
753 3 -1 2.68286 1.61933 2.40988 
326 2 0 2.56173 3.06902 2.66817 
713 3 -1 0.126936 1.5599 3.21945 
711 3 -1 0.677771 1.86332 2.38002 
763 3 -1 2.71921 2.7284 3.55812 
322 2 0 3.36298 2.48036 1.76205 
327 2 0 1.12171 2.76846 2.42309 
324 2 0 2.23848 3.95482 1.70355 
352 2 0 3.21612 3.49017 4.34808 
676 2 0 10.1094 7.14869 5.25778 
761 3 -1 3.55347 1.55663 1.66276 
828 3 -1 5.70427 7.37348 5.77929 
328 2 0 1.19555 3.60285 2.06164 
764 3 -1 1.32122 4.39152 1.39222 
779 3 -1 0.472101 3.4273 3.22097 
226 2 0 14.854 2.3832 2.76791 
402 2 0 5.1994 0.358517 1.48342 
751 3 -1 2.39399 1.12642 1.20022 
302 2 0 3.28458 0.740887 1.08445 
724 3 -1 12.8896 6.97598 4.3839 
755 3 -1 0.919871 0.758614 2.75658 
431 2 0 3.83058 0.39135 3.84458 
612 2 0 12.4546 0.538309 2.98584 
428 2 0 4.45953 1.13586 2.1954 
421 2 0 5.99933 3.3052 0.990312 
423 2 0 5.82756 2.80511 1.82895 
425 2 0 5.46421 2.13496 2.44069 
426 2 0 5.19286 2.5724 3.21133 
427 2 0 5.00021 1.37336 2.92719 
424 2 0 6.02794 3.51667 2.50744 
813 3 -1 4.35626 2.99925 3.25327 
725 3 -1 14.5157 7.16694 5.49003 
802 3 -1 7.8901 0.899239 1.28979 
404 2 0 6.93175 0.845509 1.25551 
803 3 -1 6.31265 0.80775 4.25262 
406 2 0 5.93477 0.948552 3.41964 
675 2 0 9.47681 7.15412 4.51112 
422 2 0 5.87565 4.04926 1.59528 
472 2 0 5.09444 7.35871 2.60403 
814 3 -1 4.39373 1.06771 1.2548 
876 3 -1 6.0679 2.86397 3.86676 
862 3 -1 8.13263 2.697 2.28157 
528 2 0 10.0835 0.379896 3.01018 
527 2 0 9.66568 1.01037 2.45479 
521 2 0 8.94543 3.11013 0.994771 
523 2 0 9.26414 2.2278 1.31466 
525 2 0 9.38834 1.90943 2.24194 
526 2 0 9.17858 2.63688 2.8305 
902 3 -1 10.9609 0.793995 2.04478 
524 2 0 8.41089 2.09825 1.6336 
522 2 0 9.26469 3.33828 1.85398 
529 2 0 9.1687 1.4869 3.16057 
865 3 -1 8.37431 0.525852 2.38784 
917 3 -1 9.05297 3.23611 4.00176 
604 2 0 11.8745 0.583481 2.04906 
770 3 -1 14.5855 0.321867 5.75343 
863 3 -1 8.65379 3.45276 2.78499 
234 2 0 12.9829 4.47044 4.39912 
851 3 -1 10.1159 0.878349 1.22467 
530 2 0 8.48215 1.48703 2.50067 
864 3 -1 9.26489 0.198193 3.48405 
918 3 -1 10.9848 3.39471 2.64968 
911 3 -1 13.0799 2.04877 1.64853 
624 2 0 10.7536 2.78555 1.68458 
609 2 0 12.3751 1.65594 2.14926 
222 2 0 0.121636 2.13939 1.61316 
221 2 0 14.9406 2.86102 0.99741 
622 2 0 12.3397 1.66886 1.02806 
702 3 -1 14.7278 0.372148 2.93819 
607 2 0 13.1666 1.19114 2.26733 
223 2 0 0.0798244 3.19157 1.9707 
621 2 0 11.9989 2.60649 1.01744 
626 2 0 12.818 2.82988 2.42762 
625 2 0 11.8713 2.86266 2.63816 
623 2 0 11.594 2.27546 1.81726 
608 2 0 13.4964 0.893234 3.0385 
605 2 0 13.1409 0.376509 1.85542 
606 2 0 13.5382 0.933699 1.23105 
225 2 0 14.4949 3.29126 2.75294 
916 3 -1 11.1729 5.25095 4.2302 
210 2 0 13.1754 0.539269 4.11171 
224 2 0 14.3447 3.6352 1.60128 
627 2 0 11.8319 3.86 2.40006 
610 2 0 12.9145 1.93795 2.96347 
227 2 0 14.4491 3.72986 3.60006 
904 3 -1 14.0044 1.69251 2.99982 
603 2 0 12.4141 0.571574 1.18234 
721 3 -1 0.706773 5.5249 1.53299 
776 3 -1 3.44009 3.64421 3.41684 
762 3 -1 2.08465 4.11757 2.67631 
341 2 0 2.88961 5.94389 1.01508 
343 2 0 2.91917 5.79761 1.97228 
344 2 0 2.406 5.01602 2.19777 
772 3 -1 1.48137 4.97701 2.18904 
774 3 -1 2.58078 5.70125 4.00561 
374 2 0 1.4328 6.45972 3.38306 
787 3 -1 1.02794 5.89297 2.75665 
250 2 0 14.5768 7.05574 4.57845 
373 2 0 1.91311 7.01992 4.09904 
342 2 0 2.03642 5.81134 1.34853 
771 3 -1 2.46326 5.03736 1.05605 
838 3 -1 2.7091 6.95846 3.49825 
233 2 0 13.569 4.70425 5.12005 
722 3 -1 0.427018 6.87915 3.08362 
782 3 -1 3.37441 6.64885 1.66776 
244 2 0 0.472094 6.63009 2.12879 
405 2 0 5.762 0.548073 2.59554 
832 3 -1 6.46651 7.13376 1.04274 
883 3 -1 10.747 7.36189 2.27002 
812 3 -1 5.79232 3.7651 3.36214 
556 2 0 5.07 4.19687 3.8792 
552 2 0 6.7484 3.41843 3.51669 
878 3 -1 4.336 4.1829 3.1274 
632 2 0 11.275 4.32566 4.08615 
345 2 0 3.39063 5.42061 2.75016 
473 2 0 4.83091 6.68513 3.32268 
347 2 0 3.56661 5.24167 3.71304 
346 2 0 3.51209 6.31658 2.81059 
773 3 -1 4.24851 6.68572 2.42804 
821 3 -1 5.82149 7.18188 1.73782 
822 3 -1 4.76341 4.22941 1.20775 
811 3 -1 5.32024 4.64 2.14103 
448 2 0 7.57419 5.51712 2.00078 
449 2 0 6.9467 5.02046 3.18287 
441 2 0 5.84357 6.22178 1.07928 
442 2 0 5.06286 6.62642 1.58276 
443 2 0 6.23377 5.34051 1.18241 
445 2 0 6.29156 5.04478 2.0804 
446 2 0 7.0755 4.41192 2.26756 
447 2 0 6.84212 5.75518 2.57577 
444 2 0 5.31676 5.00646 1.05467 
450 2 0 6.05765 5.21679 3.16991 
826 3 -1 5.85894 6.63652 2.94674 
824 3 -1 7.72251 5.08871 1.15589 
476 2 0 3.49237 6.66113 3.86622 
310 2 0 0.698891 0.556636 3.68967 
349 2 0 3.81101 4.38711 4.12298 
452 2 0 6.30504 6.15428 3.66373 
912 3 -1 10.0875 2.8349 2.44703 
861 3 -1 9.7707 3.75494 1.16769 
823 3 -1 7.12747 3.48347 2.50974 
872 3 -1 10.1326 4.71243 1.86231 
546 2 0 8.94409 6.31068 2.98459 
915 3 -1 10.8503 5.90507 2.00697 
545 2 0 8.88112 5.44343 2.60245 
541 2 0 8.98127 6.03945 1.00822 
542 2 0 8.21467 6.473 1.4637 
543 2 0 9.11221 6.1765 1.93317 
871 3 -1 7.66404 7.07508 1.97604 
547 2 0 8.06712 5.00692 2.84801 
874 3 -1 8.62437 4.14104 1.3654 
548 2 0 8.14378 4.52821 2.04732 
544 2 0 9.85483 5.61804 1.79202 
873 3 -1 8.14942 6.82196 2.88268 
633 2 0 10.3828 3.25673 3.62675 
534 2 0 7.92986 2.99834 3.4658 
882 3 -1 9.18021 7.25966 2.0265 
926 3 -1 11.0051 6.61701 2.90435 
652 2 0 10.7476 6.30473 3.75643 
909 3 -1 9.65789 0.616127 5.4534 
913 3 -1 13.0748 3.72106 2.57901 
712 3 -1 14.7054 4.18421 2.44986 
242 2 0 0.932319 6.40355 1.18778 
790 3 -1 4.58722 6.93202 6.48093 
630 2 0 10.655 5.21663 2.6075 
642 2 0 12.2295 5.88786 1.84877 
401 2 0 5.98305 0.161057 0.999499 
241 2 0 0.0159962 6.2869 1.02747 
628 2 0 12.2252 3.73978 1.51443 
914 3 -1 11.9651 4.63591 1.63013 
888 3 -1 6.96542 7.34143 4.34704 
243 2 0 14.5681 6.47952 1.89613 
245 2 0 14.0234 6.89139 2.72824 
641 2 0 12.1746 6.29505 0.970744 
643 2 0 12.9135 6.64861 1.53387 
644 2 0 13.6286 6.12551 1.24475 
645 2 0 13.257 6.45518 2.36711 
646 2 0 13.068 5.47535 2.40168 
647 2 0 12.9571 6.82292 3.20094 
922 3 -1 12.9982 5.44686 1.30932 
923 3 -1 12.89 4.68046 1.95506 
649 2 0 12.0492 6.64336 3.56765 
921 3 -1 12.0353 6.64375 2.33859 
723 3 -1 14.2289 7.28734 1.05718 
216 2 0 10.7416 0.235871 5.09681 
246 2 0 13.8334 7.36123 1.93614 
329 2 0 0.835099 2.47548 3.33167 
330 2 0 1.75014 2.1719 3.02693 
765 3 -1 2.42845 1.70159 3.52851 
232 2 0 0.18245 4.59993 4.4215 
501 2 0 8.77583 0.117857 1.0248 
788 3 -1 1.89706 7.01264 6.32335 
334 2 0 1.50225 2.21979 5.18404 
767 3 -1 1.46637 1.81795 6.02968 
333 2 0 0.695665 2.80746 5.05291 
335 2 0 0.295943 1.93158 5.18056 
331 2 0 0.802535 2.20984 4.23928 
354 2 0 3.3258 4.92957 5.69413 
351 2 0 2.93688 4.42269 4.53075 
336 2 0 0.920438 1.20345 5.28218 
337 2 0 14.3941 1.59664 5.26486 
740 3 -1 14.9418 7.51844 8.12155 
332 2 0 1.73726 2.47668 4.03801 
353 2 0 2.79746 4.17034 5.44907 
766 3 -1 2.38941 2.64817 4.7616 
474 2 0 5.57171 6.92129 3.89762 
815 3 -1 3.64507 1.93337 4.09356 
430 2 0 4.42319 1.29796 4.14062 
203 2 0 14.4921 0.291376 1.65701 
260 2 0 0.911938 4.17162 6.21453 
730 3 -1 1.08601 3.20836 6.18943 
654 2 0 12.2082 7.37053 5.40182 
403 2 0 6.38935 0.314481 1.85249 
429 2 0 4.62417 0.664327 3.45612 
378 2 0 2.92999 7.28973 5.14277 
555 2 0 5.41146 3.48258 4.41674 
879 3 -1 4.61677 3.06668 5.90924 
558 2 0 5.43804 3.15224 5.5023 
557 2 0 4.97182 2.75273 4.74606 
817 3 -1 4.58705 0.48906 5.1663 
559 2 0 5.54168 2.01401 4.50202 
880 3 -1 5.64876 0.200743 5.18216 
560 2 0 5.45837 1.12569 4.90126 
539 2 0 6.48447 3.4288 6.09361 
540 2 0 5.95456 4.20809 6.03 
653 2 0 11.3735 6.94403 5.16828 
538 2 0 6.30375 2.40761 5.23942 
870 3 -1 5.76827 5.11819 5.77075 
869 3 -1 6.42668 1.58369 4.7506 
537 2 0 6.58981 3.31085 5.11813 
456 2 0 6.04583 6.97667 5.00506 
640 2 0 12.7139 1.86214 5.81084 
920 3 -1 11.7767 1.98427 6.1976 
910 3 -1 7.97158 0.558853 5.97782 
619 2 0 8.86846 1.85029 4.86433 
907 3 -1 10.9747 1.84186 4.35325 
908 3 -1 9.95747 2.68544 4.48994 
613 2 0 10.9479 0.968014 3.23436 
866 3 -1 7.41537 1.0095 4.54963 
620 2 0 8.51294 1.18905 5.48654 
615 2 0 10.1074 1.32407 3.71281 
531 2 0 8.54411 2.14395 3.65867 
532 2 0 8.21708 1.41055 4.12528 
533 2 0 8.21365 2.66308 4.35643 
616 2 0 9.99064 2.32969 3.6279 
639 2 0 12.369 1.73758 4.89788 
617 2 0 9.30694 1.28597 4.28691 
535 2 0 7.3933 2.96122 4.79478 
618 2 0 10.0831 1.2209 4.86566 
637 2 0 11.7281 2.42867 4.5956 
635 2 0 11.0187 3.03422 4.28152 
614 2 0 10.985 0.924243 4.14316 
672 2 0 9.94098 7.25611 3.01493 
638 2 0 11.269 2.57416 5.4259 
634 2 0 9.86608 3.74223 4.21615 
611 2 0 11.8107 1.23081 2.84304 
651 2 0 11.5188 6.48371 4.33786 
636 2 0 11.441 3.43056 3.49472 
228 2 0 14.9382 2.96773 3.97654 
714 3 -1 14.6389 2.07813 4.19211 
905 3 -1 12.3435 2.39995 3.59274 
769 3 -1 0.139878 1.98472 6.90184 
720 3 -1 13.9319 4.02171 6.62727 
340 2 0 13.7635 0.815485 5.78736 
719 3 -1 13.6748 2.67122 5.35966 
238 2 0 12.795 2.78841 5.08369 
239 2 0 12.98 2.70368 6.42678 
338 2 0 14.4543 1.66936 6.2447 
229 2 0 14.0765 3.59622 4.5396 
237 2 0 12.6262 3.34585 5.8355 
240 2 0 13.47 3.2659 6.9941 
249 2 0 14.1633 6.64576 3.828 
717 3 -1 13.3303 4.14463 3.53657 
705 3 -1 13.963 0.759454 4.68076 
230 2 0 14.7105 3.11036 5.13724 
231 2 0 14.2513 4.47102 4.52981 
339 2 0 13.4865 1.64915 5.27281 
236 2 0 13.0034 4.42347 6.02739 
235 2 0 13.3777 3.78772 5.36784 
919 3 -1 10.6309 3.30081 5.29713 
727 3 -1 13.9695 5.37137 6.09917 
348 2 0 2.65492 4.83565 3.50897 
252 2 0 13.7165 5.31401 3.93701 
925 3 -1 11.8272 5.42236 2.68364 
358 2 0 1.01563 3.57518 4.0044 
360 2 0 1.59664 5.45763 4.08368 
357 2 0 1.5543 4.36471 4.10844 
359 2 0 1.45688 4.85454 3.34157 
279 2 0 0.75024 7.25591 6.41025 
777 3 -1 3.64321 4.80788 6.56899 
376 2 0 2.07675 6.7424 5.3879 
728 3 -1 0.646438 6.75806 5.20187 
375 2 0 2.57255 6.47569 4.59607 
255 2 0 0.529323 5.65316 4.86432 
729 3 -1 1.22222 6.37213 7.04944 
258 2 0 1.32042 6.11328 6.15167 
377 2 0 3.30454 6.42807 5.22363 
780 3 -1 1.43988 6.17738 4.73999 
778 3 -1 2.35919 5.87346 5.81402 
356 2 0 2.26593 5.40337 5.02911 
355 2 0 2.01436 4.4438 4.9862 
257 2 0 1.2494 5.36995 5.51738 
259 2 0 0.433198 4.92258 5.76579 
256 2 0 0.0623549 6.0224 5.69868 
251 2 0 14.5193 5.79887 3.74356 
254 2 0 14.509 5.26179 5.32603 
253 2 0 14.6404 5.99807 4.70409 
715 3 -1 14.7992 3.98849 5.48957 
768 3 -1 1.77928 0.708533 5.30546 
475 2 0 4.37766 7.02153 4.11567 
775 3 -1 3.94043 3.75898 5.5507 
350 2 0 4.29324 4.44446 4.90253 
827 3 -1 5.40205 4.44882 4.89261 
553 2 0 6.23476 3.99796 4.31325 
536 2 0 7.94774 3.58512 5.27278 
726 3 -1 12.947 5.08908 3.46872 
380 2 0 4.18042 6.26912 5.84623 
379 2 0 4.19768 6.39577 4.84967 
825 3 -1 5.14802 4.95649 3.1416 
502 2 0 9.41485 0.390939 1.58805 
929 3 -1 13.0914 5.52066 5.58457 
658 2 0 12.5053 6.27355 5.81982 
554 2 0 6.39433 4.35378 5.16569 
789 3 -1 2.99375 7.02576 6.07716 
451 2 0 6.82737 5.52295 3.94916 
453 2 0 6.75365 5.25893 4.86281 
460 2 0 4.95771 5.48262 6.46227 
830 3 -1 5.27238 4.80934 7.09011 
459 2 0 5.603 6.27079 6.52816 
457 2 0 6.46755 6.15906 6.1103 
458 2 0 6.47811 5.29212 6.53567 
655 2 0 11.0821 6.34536 5.84879 
455 2 0 6.4301 6.10413 5.19634 
454 2 0 5.92665 5.2035 4.50142 
877 3 -1 7.20438 4.35907 5.70182 
718 3 -1 12.2923 5.03936 6.13466 
551 2 0 7.06132 4.28034 3.85497 
549 2 0 7.76371 4.18947 3.20799 
829 3 -1 7.38169 5.448 6.29155 
940 3 -1 7.29003 6.64627 5.29097 
650 2 0 12.1103 5.67574 3.61742 
550 2 0 8.08149 4.92198 3.90266 
875 3 -1 8.78166 5.19865 4.48618 
939 3 -1 7.9303 6.19665 4.42662 
928 3 -1 10.1785 5.4418 4.44961 
656 2 0 10.6283 6.10581 5.08053 
867 3 -1 8.11973 3.60785 4.14603 
868 3 -1 7.41178 3.1164 6.00303 
679 2 0 8.0658 6.98725 5.81146 
678 2 0 8.77178 6.30956 4.73997 
677 2 0 8.78592 7.18441 5.20365 
659 2 0 12.3127 5.05164 4.97553 
930 3 -1 11.0216 5.32512 5.75473 
660 2 0 11.4816 4.65379 5.24515 
657 2 0 11.8086 5.84786 5.35615 
631 2 0 10.5422 4.18242 3.43618 
903 3 -1 14.1701 1.60212 1.55872 
629 2 0 11.1181 4.43415 2.73455 
716 3 -1 0.221253 4.96336 3.54521 
433 2 0 3.36137 0.0361356 4.5542 
361 2 0 2.80398 9.08318 0.998133 
363 2 0 3.39754 8.39364 1.47052 
368 2 0 1.65354 9.47823 2.45487 
784 3 -1 1.04917 9.30704 1.67549 
365 2 0 2.87103 8.85403 2.21594 
369 2 0 1.82431 8.64093 3.75056 
367 2 0 2.28002 8.96291 2.96315 
362 2 0 2.67636 10.1061 1.02798 
781 3 -1 3.07354 9.99083 1.91171 
855 3 -1 9.75483 14.2049 3.22333 
732 3 -1 1.44979 10.8314 1.27708 
384 2 0 2.43132 11.4438 2.423 
792 3 -1 2.29139 10.5327 2.66094 
733 3 -1 14.7822 9.04827 1.99354 
847 3 -1 3.86269 9.23665 2.44019 
564 2 0 9.58265 7.6384 1.22954 
366 2 0 2.02738 8.69049 1.85171 
835 3 -1 4.86933 8.01126 1.86763 
217 2 0 10.224 14.4517 5.48757 
734 3 -1 1.06877 10.9487 3.9465 
387 2 0 3.3356 10.9915 3.11183 
390 2 0 2.48954 10.0084 3.70023 
783 3 -1 1.46792 8.39944 2.59958 
477 2 0 4.37313 7.81458 4.76072 
468 2 0 4.81178 9.65367 2.54962 
834 3 -1 4.42055 10.5693 2.60615 
461 2 0 6.05234 9.1337 0.993327 
462 2 0 5.26321 9.24637 1.513 
463 2 0 6.18368 8.53494 1.70788 
831 3 -1 5.7027 10.0489 1.7157 
465 2 0 5.88792 9.13497 2.40601 
467 2 0 5.42779 9.26887 3.22569 
470 2 0 4.45469 8.39736 2.71467 
833 3 -1 7.11701 9.65159 3.27386 
464 2 0 6.86208 7.829 1.62728 
469 2 0 4.77706 8.66645 3.59333 
466 2 0 6.52979 8.94434 3.09676 
491 2 0 4.26378 10.9717 3.73782 
793 3 -1 4.38108 11.1508 1.20397 
492 2 0 5.17436 10.8264 3.54262 
494 2 0 4.04922 9.50114 3.37823 
493 2 0 4.1955 10.1225 4.14394 
586 2 0 7.81756 10.0475 1.31046 
893 3 -1 6.9412 9.72063 1.04427 
748 3 -1 13.7554 11.6461 7.31948 
580 2 0 5.10565 10.4424 4.48437 
579 2 0 4.97353 9.49626 4.41978 
307 2 0 1.24281 14.7929 3.19149 
731 3 -1 14.0836 8.34619 1.30615 
408 2 0 6.47838 14.5692 3.39866 
507 2 0 7.6477 14.546 3.05162 
561 2 0 9.0369 9.25179 0.968322 
562 2 0 8.30185 8.53369 1.151 
563 2 0 9.71688 8.62683 1.30554 
565 2 0 9.24008 8.38147 2.06897 
567 2 0 9.09864 8.53259 2.99447 
568 2 0 9.81547 9.14044 2.73691 
588 2 0 7.35532 10.4697 2.48521 
881 3 -1 8.54958 9.11238 1.83612 
887 3 -1 7.9647 8.6993 3.04139 
574 2 0 7.75619 8.24172 3.97805 
894 3 -1 7.97279 9.77928 2.42861 
570 2 0 9.06141 9.47205 3.79713 
668 2 0 11.0732 9.72231 2.93757 
934 3 -1 10.2209 9.98435 3.38726 
503 2 0 8.33501 14.5699 1.6302 
884 3 -1 9.83616 9.56025 1.84897 
931 3 -1 11.0056 8.25592 1.28421 
943 3 -1 10.4139 10.691 2.09469 
584 2 0 9.05426 11.2758 2.07848 
927 3 -1 12.3016 8.08897 6.0501 
569 2 0 8.58443 8.68578 3.79596 
885 3 -1 9.1717 10.3819 3.77841 
816 3 -1 3.25509 14.1481 2.59283 
478 2 0 3.9412 7.64449 5.63891 
261 2 0 14.8269 9.13304 1.0101 
266 2 0 0.218378 9.54767 2.69866 
263 2 0 14.9723 9.95193 1.49718 
264 2 0 0.75422 10.2588 1.00564 
262 2 0 13.9785 9.24186 1.47372 
665 2 0 12.1507 9.55463 2.06627 
267 2 0 14.677 10.2755 3.24378 
265 2 0 14.9353 10.3849 2.34669 
664 2 0 13.1714 10.1899 1.66535 
663 2 0 12.3225 10.1165 1.29759 
662 2 0 11.1094 9.15747 1.02007 
661 2 0 12.0673 9.28174 0.97696 
268 2 0 0.489782 10.1953 3.73241 
933 3 -1 13.3546 8.4423 2.16489 
270 2 0 14.1896 8.88489 3.08139 
735 3 -1 14.3482 8.23741 2.37162 
686 2 0 11.0696 10.0609 1.90058 
667 2 0 11.5812 8.95809 2.62754 
932 3 -1 12.8868 10.3692 2.57508 
666 2 0 12.8564 9.20729 2.59787 
269 2 0 14.8128 9.40032 3.66195 
689 2 0 12.2294 9.81826 3.1823 
691 2 0 12.4763 10.4309 3.87531 
941 3 -1 12.861 11.1342 1.42903 
687 2 0 11.6676 10.6391 3.29332 
745 3 -1 13.8117 10.6145 3.43298 
947 3 -1 13.5653 8.57377 3.99587 
504 2 0 8.69463 14.5585 2.51822 
383 2 0 3.12596 11.9068 1.97378 
211 2 0 12.5229 14.586 4.33084 
304 2 0 2.00679 14.4191 1.33719 
312 2 0 0.168674 13.6799 3.57342 
388 2 0 2.4578 11.0848 3.44876 
794 3 -1 2.17339 12.0111 3.36711 
741 3 -1 0.68598 11.2646 2.03646 
701 3 -1 1.33936 14.246 2.22001 
381 2 0 3.06011 12.0927 0.965414 
752 3 -1 2.65156 13.8059 1.79738 
756 3 -1 0.972176 13.6123 2.94144 
382 2 0 2.17186 12.4107 1.00221 
791 3 -1 1.85677 12.8309 1.76151 
757 3 -1 0.214517 12.6642 3.24683 
214 2 0 12.374 13.8362 5.26985 
820 3 -1 3.18501 13.6962 3.56849 
845 3 -1 3.26736 12.636 4.09898 
309 2 0 0.436311 14.6632 3.64812 
710 3 -1 7.85815 14.6316 5.10332 
207 2 0 13.4359 14.807 3.13666 
386 2 0 4.3049 11.6446 2.06702 
489 2 0 4.69524 11.6897 3.27252 
587 2 0 7.51658 11.3961 2.34314 
585 2 0 7.87036 11 1.58325 
385 2 0 3.68705 11.7553 2.73612 
508 2 0 7.5603 13.6545 2.72538 
488 2 0 5.6573 11.329 2.55176 
807 3 -1 4.46337 14.0544 2.96818 
841 3 -1 5.73455 11.0807 1.38695 
482 2 0 5.08644 11.814 1.18491 
414 2 0 4.67004 13.264 3.60107 
487 2 0 5.2156 12.1542 2.62878 
485 2 0 5.37419 12.8992 1.98242 
483 2 0 6.10219 12.2385 1.92157 
484 2 0 6.52496 13.0529 1.88189 
413 2 0 5.04725 12.617 4.17361 
486 2 0 4.46157 12.7455 2.22585 
481 2 0 6.06101 12.1202 0.999615 
412 2 0 5.59986 13.0719 2.97072 
806 3 -1 5.94593 13.8541 2.60418 
411 2 0 5.82946 13.2084 3.93512 
843 3 -1 3.90354 12.7119 1.44225 
490 2 0 4.19002 12.2987 3.81162 
844 3 -1 6.47158 10.8637 2.25265 
842 3 -1 7.11245 12.8648 1.13894 
758 3 -1 13.244 14.7802 5.11301 
852 3 -1 9.47559 14.2018 2.04581 
372 2 0 2.82045 7.75936 3.99002 
760 3 -1 11.7793 11.5695 4.85271 
854 3 -1 7.09722 13.3803 3.55573 
892 3 -1 8.54604 10.9958 2.78443 
582 2 0 10.0767 11.88 1.2179 
583 2 0 8.71596 11.2246 1.22451 
891 3 -1 10.0643 11.9174 2.09152 
581 2 0 9.16213 12.1144 0.979828 
858 3 -1 10.0605 12.7199 2.72961 
516 2 0 9.31118 13.2291 2.79077 
860 3 -1 11.3856 14.8232 4.29404 
942 3 -1 10.7176 11.5602 2.94897 
518 2 0 10.8286 13.4951 3.55951 
407 2 0 5.54342 14.7889 3.17307 
684 2 0 11.0523 11.5129 1.98779 
859 3 -1 10.9475 13.2763 2.63213 
303 2 0 2.58396 14.8481 1.91765 
906 3 -1 12.0518 14.7327 3.25588 
682 2 0 12.8821 12.0819 1.30964 
282 2 0 0.393194 11.5076 1.16386 
287 2 0 14.4278 11.5766 3.2381 
288 2 0 0.348127 11.2215 2.98337 
703 3 -1 14.1315 14.4449 1.02416 
837 3 -1 5.79422 7.77529 4.39985 
281 2 0 14.9207 12.3388 0.944535 
285 2 0 14.0535 12.2195 2.50844 
206 2 0 14.1924 14.1574 1.93873 
704 3 -1 12.7355 13.3515 3.41896 
685 2 0 11.747 10.5976 2.24756 
743 3 -1 14.605 13.1571 1.6524 
286 2 0 14.3995 13.1538 2.55903 
683 2 0 11.8381 11.2655 1.49739 
284 2 0 13.6843 12.9456 1.40315 
742 3 -1 13.3232 12.9941 2.33182 
283 2 0 14.1336 12.1411 1.52212 
681 2 0 11.9019 12.0675 0.999196 
901 3 -1 12.9452 13.6362 1.7357 
208 2 0 12.894 14.0702 2.82108 
520 2 0 10.8801 14.058 4.63051 
706 3 -1 13.664 13.5237 3.93159 
936 3 -1 9.02589 7.49808 3.1452 
315 2 0 14.0747 13.2073 4.90294 
510 2 0 8.90555 14.306 3.75236 
795 3 -1 1.62143 9.90047 3.49 
370 2 0 1.74903 9.3535 4.36803 
798 3 -1 0.910606 11.2331 5.28634 
744 3 -1 1.33539 11.267 3.0007 
506 2 0 6.74638 14.201 1.85367 
389 2 0 3.27425 10.6315 3.99123 
277 2 0 0.754092 8.16515 5.79083 
391 2 0 2.68631 10.8104 4.73495 
799 3 -1 1.8216 10.2321 7.66889 
393 2 0 2.09324 11.0851 5.53089 
394 2 0 2.09052 10.1306 5.69235 
797 3 -1 1.78251 10.0795 6.58294 
786 3 -1 2.76815 8.70979 4.09009 
276 2 0 0.121748 9.47307 6.32061 
738 3 -1 14.144 9.64851 6.47387 
924 3 -1 12.4606 8.3208 2.82291 
395 2 0 1.93255 11.209 6.4715 
739 3 -1 0.962446 9.23928 6.89917 
392 2 0 3.53429 10.8559 5.13473 
785 3 -1 1.75433 10.1889 4.75004 
278 2 0 0.730201 8.30765 6.71055 
275 2 0 0.135249 8.92108 5.55274 
498 2 0 2.88704 8.6653 5.20093 
396 2 0 1.25635 11.7382 6.03615 
839 3 -1 3.15347 8.00957 5.98751 
213 2 0 12.0927 14.7312 5.13577 
895 3 -1 6.16339 10.9202 3.6682 
479 2 0 5.06 8.48311 4.74448 
849 3 -1 1.98101 8.75126 5.14253 
840 3 -1 4.46977 9.39544 6.16271 
577 2 0 5.76811 9.02097 4.22284 
846 3 -1 5.1726 11.6073 4.16677 
848 3 -1 5.21019 9.82223 5.44917 
495 2 0 3.68145 9.60229 4.75381 
496 2 0 4.39223 10.0744 5.20825 
499 2 0 3.19374 9.03731 6.46476 
890 3 -1 4.5276 11.1386 4.78286 
578 2 0 5.93436 9.94342 3.97437 
889 3 -1 6.10286 9.69002 4.89707 
575 2 0 6.6872 9.1578 4.15914 
497 2 0 3.53362 9.24915 5.64172 
590 2 0 7.06726 11.0452 3.26437 
500 2 0 3.81084 9.43706 7.05817 
850 3 -1 4.66329 9.22086 7.38511 
480 2 0 4.47621 8.93685 5.30201 
505 2 0 7.55837 14.6408 2.13798 
674 2 0 10.885 8.27181 4.40491 
938 3 -1 10.3502 7.66404 6.11001 
247 2 0 14.271 7.52008 3.44455 
673 2 0 9.97376 7.88986 4.33024 
669 2 0 10.8033 8.41904 3.00992 
886 3 -1 9.10213 8.22734 4.95252 
671 2 0 9.96499 8.11319 3.4042 
572 2 0 8.29947 8.56293 5.20618 
935 3 -1 10.0355 9.36965 4.34857 
670 2 0 10.7373 9.02658 3.7808 
573 2 0 7.46709 8.81295 4.68163 
571 2 0 8.25791 9.29878 4.45341 
576 2 0 6.73939 8.213 4.1439 
471 2 0 4.84134 7.69635 3.51413 
708 3 -1 10.2479 14.8276 4.34539 
897 3 -1 9.33585 10.8411 5.57712 
937 3 -1 11.5847 8.32244 3.71754 
271 2 0 14.4555 9.05296 4.4656 
316 2 0 13.9572 14.1488 4.94677 
688 2 0 12.0078 11.4841 2.85554 
273 2 0 14.1781 8.97649 5.37535 
945 3 -1 11.2256 9.3445 4.78866 
946 3 -1 11.3142 10.6168 5.35795 
747 3 -1 14.9972 11.6741 6.4075 
694 2 0 13.6209 9.49089 3.79119 
692 2 0 11.7334 10.4565 4.5617 
736 3 -1 0.146813 10.4436 4.71678 
949 3 -1 11.9297 8.34934 4.87223 
690 2 0 11.7617 9.53843 3.93537 
695 2 0 12.963 9.96725 5.1581 
697 2 0 12.0903 9.97877 5.67458 
693 2 0 13.3694 10.27 4.29454 
696 2 0 12.602 9.35983 4.53255 
272 2 0 14.4173 9.88282 4.84807 
698 2 0 11.9929 9.04227 5.47168 
699 2 0 11.2508 9.83739 6.15046 
737 3 -1 14.5272 8.1231 6.13021 
290 2 0 14.461 10.9389 4.12574 
274 2 0 14.6235 8.11643 5.15489 
950 3 -1 11.1247 8.42514 6.99149 
700 2 0 11.2601 9.42154 7.01459 
602 2 0 12.576 14.204 1.15383 
948 3 -1 12.4399 8.83661 3.7548 
749 3 -1 1.5789 14.1231 5.82064 
818 3 -1 3.17872 13.6128 6.47991 
311 2 0 -0.0385635 14.208 4.38322 
436 2 0 3.3754 13.7895 5.53839 
299 2 0 0.223314 13.0078 6.65329 
808 3 -1 4.08708 12.1633 4.72959 
438 2 0 2.7681 12.7976 5.16619 
308 2 0 1.55772 14.0422 3.75459 
754 3 -1 0.908095 13.7652 4.40597 
313 2 0 0.021523 13.3787 4.90432 
440 2 0 2.26002 13.6422 3.1947 
796 3 -1 3.1984 10.3419 5.80466 
398 2 0 2.28811 11.0469 7.57309 
397 2 0 1.43823 11.1832 7.30078 
297 2 0 14.7805 13.7456 6.20152 
399 2 0 1.00849 11.2949 8.15808 
400 2 0 0.365071 11.4647 7.50639 
800 3 -1 14.7323 11.8336 8.12368 
437 2 0 2.45723 13.4599 4.51782 
298 2 0 0.678668 13.8332 5.89305 
746 3 -1 0.985215 12.9487 5.40805 
292 2 0 0.906482 12.1627 4.86185 
435 2 0 3.17092 14.1264 4.63207 
416 2 0 4.91935 12.0902 5.26522 
819 3 -1 1.92308 12.4905 4.88353 
809 3 -1 5.15977 11.2429 5.71871 
300 2 0 0.607969 13.8362 7.0769 
294 2 0 0.492782 12.3494 5.92725 
439 2 0 2.35694 12.9139 3.76894 
805 3 -1 4.01635 14.2525 3.93512 
409 2 0 5.44228 13.9916 3.68491 
509 2 0 8.02854 14.4796 3.866 
410 2 0 4.826 14.4812 4.27162 
415 2 0 5.70124 12.4339 4.85835 
417 2 0 6.18584 11.6329 4.68226 
420 2 0 6.86311 10.398 4.22218 
418 2 0 5.81646 10.8279 5.17554 
419 2 0 7.01824 11.3816 4.19991 
810 3 -1 6.89796 10.6543 5.1991 
857 3 -1 7.72338 12.428 1.9061 
517 2 0 9.96667 13.0951 3.9216 
515 2 0 9.16291 12.696 3.61127 
896 3 -1 9.79796 11.2443 3.97812 
218 2 0 10.5261 13.5811 5.86893 
898 3 -1 7.52836 11.4183 5.40416 
595 2 0 8.53696 11.283 4.94074 
596 2 0 7.96359 11.9297 4.72432 
899 3 -1 9.56065 12.921 5.58071 
519 2 0 10.0646 13.6344 4.70404 
856 3 -1 8.10803 13.3875 5.27402 
371 2 0 1.98849 7.92211 4.34634 
591 2 0 8.03534 11.0161 4.06709 
589 2 0 7.85784 11.5659 3.26645 
592 2 0 8.85178 11.4371 3.85476 
512 2 0 7.76563 13.0703 4.4242 
593 2 0 8.28079 10.3659 4.73865 
514 2 0 8.49794 12.3839 2.50147 
600 2 0 10.7773 11.6532 4.97373 
900 3 -1 10.4571 11.1397 5.77167 
599 2 0 10.1291 12.3169 4.73052 
597 2 0 9.34284 11.811 4.83595 
594 2 0 9.17762 10.4475 4.73886 
511 2 0 8.13766 13.5317 3.69034 
513 2 0 8.22169 12.6082 3.38285 
598 2 0 8.79208 12.3037 5.42553 
318 2 0 13.571 12.1453 5.27562 
219 2 0 9.42449 14.2939 5.97619 
215 2 0 11.195 14.4625 5.52858 
314 2 0 0.234596 12.7731 4.22727 
944 3 -1 11.8954 11.5227 3.80014 
707 3 -1 12.5665 13.1801 5.94134 
295 2 0 14.2018 12.9455 6.12515 
296 2 0 14.2999 12.3987 6.94974 
291 2 0 0.0330109 11.7759 4.91496 
289 2 0 0.0994278 11.6591 3.96252 
293 2 0 14.6019 12.2109 5.63069 
317 2 0 13.109 12.7572 4.75152 
709 3 -1 11.4851 13.4511 5.78873 
212 2 0 12.8839 13.6654 4.45423 
759 3 -1 12.6747 11.9567 5.52451 
320 2 0 11.4785 12.4344 5.0133 
319 2 0 12.162 12.8289 4.49543 
434 2 0 4.15512 14.6212 5.07355 
305 2 0 2.08542 14.7982 2.73625 
566 2 0 10.1321 8.02239 2.03152 
220 2 0 8.79301 14.5237 5.30438 
853 3 -1 7.08709 14.7491 1.12061 
209 2 0 13.4521 14.6228 4.10929 
750 3 -1 0.771455 14.7536 7.04119 
301 2 0 2.89602 14.8856 1.00324 
364 2 0 3.04209 7.5061 1.50362 
202 2 0 0.580803 14.3869 1.61094 
648 2 0 13.1926 7.7116 3.06919 
201 2 0 0.0980109 14.9267 0.972694 
836 3 -1 5.94503 7.80944 2.48991 
804 3 -1 7.0365 14.8099 4.1385 
248 2 0 13.6334 7.52217 4.24533 
801 3 -1 5.11569 14.5621 2.0664 
432 2 0 3.468 14.8995 3.15404 
601 2 0 11.821 14.848 0.960933 
280 2 0 0.301858 7.53177 7.23797 
204 2 0 0.144973 14.934 2.21066 
205 2 0 13.9384 14.9861 2.35895 
680 2 0 7.6128 7.49307 5.15669 
ITEM: TIMESTEP
12000
ITEM: NUMBER OF ATOMS
750
ITEM: BOX BOUNDS pp pp ff
0 15
0 15
0 22
ITEM: ATOMS id type q x y z 
321 2 0 2.90245 3.14071 1.03583 
323 2 0 3.0304 3.33187 2.01597 
325 2 0 3.31145 3.67988 2.86586 
753 3 -1 1.33808 1.40068 1.81508 
711 3 -1 0.768777 2.27626 1.47292 
322 2 0 3.40199 2.52063 1.66887 
328 2 0 2.60379 2.98264 3.50988 
751 3 -1 3.15072 1.62243 1.16287 
755 3 -1 0.692789 0.409932 1.69101 
222 2 0 0.00703517 2.6581 1.96629 
223 2 0 0.815055 3.35651 1.39094 
302 2 0 3.14347 0.688913 1.33349 
226 2 0 0.46706 2.64454 2.90277 
221 2 0 0.105232 2.93165 0.986634 
225 2 0 0.7391 3.38478 2.35555 
764 3 -1 2.28281 2.73697 2.66582 
306 2 0 1.87553 0.772453 2.22844 
816 3 -1 3.24013 0.81017 2.47839 
228 2 0 1.53317 3.30522 3.42139 
432 2 0 3.71926 0.952684 3.2997 
305 2 0 2.2338 0.00612423 2.75851 
326 2 0 3.76676 2.80454 3.01128 
763 3 -1 4.41972 2.26079 3.39092 
761 3 -1 4.02865 3.29694 1.87415 
402 2 0 5.07384 0.00145195 1.10719 
421 2 0 5.91289 3.17751 1.03452 
423 2 0 5.54384 2.65687 1.78847 
425 2 0 6.18657 2.23496 2.33572 
426 2 0 5.69711 2.73281 2.99769 
427 2 0 5.52633 1.75205 2.85742 
424 2 0 5.25761 3.4466 2.24624 
814 3 -1 5.26405 1.23115 1.26565 
823 3 -1 6.25351 3.71465 2.1181 
429 2 0 4.87819 1.29539 3.38359 
802 3 -1 7.18318 1.94343 2.60491 
403 2 0 6.21642 0.748216 1.73959 
878 3 -1 4.82239 3.62708 3.31038 
405 2 0 6.96499 0.406796 2.34112 
874 3 -1 7.14129 2.98954 1.79058 
428 2 0 4.97105 1.4452 2.18864 
866 3 -1 7.08814 1.98926 3.63532 
408 2 0 7.36233 0.841592 3.4364 
404 2 0 6.90746 1.37059 1.89602 
401 2 0 5.99949 0.16422 0.967676 
801 3 -1 4.10666 0.229847 1.00002 
901 3 -1 10.1643 0.443733 1.409 
862 3 -1 7.99918 2.81162 2.99951 
528 2 0 10.0183 1.46473 3.24479 
527 2 0 9.35085 2.18224 3.25019 
521 2 0 9.19963 2.72755 0.941401 
523 2 0 9.28972 2.2291 1.84348 
525 2 0 9.74509 2.66386 2.56514 
526 2 0 9.38862 3.50989 2.55426 
524 2 0 8.56367 2.65871 2.23623 
522 2 0 10.0819 2.67694 1.34918 
865 3 -1 8.60459 0.568009 3.00902 
863 3 -1 10.3143 3.59951 2.29589 
851 3 -1 8.70516 1.70166 1.02742 
530 2 0 9.01575 1.27215 3.61089 
912 3 -1 10.9899 3.17651 1.06057 
406 2 0 7.76353 0.927197 2.16643 
636 2 0 10.3644 3.21281 3.23886 
906 3 -1 11.1269 1.08475 3.4704 
861 3 -1 9.84896 3.66956 1.3915 
803 3 -1 8.08494 1.72872 1.83133 
917 3 -1 9.45424 3.12048 3.59933 
908 3 -1 10.8552 2.24235 3.58679 
502 2 0 8.34555 0.842366 1.06679 
864 3 -1 10.0516 0.579065 3.59607 
501 2 0 8.87767 0.0609119 0.997408 
407 2 0 7.53471 0.0420641 3.02905 
205 2 0 13.3994 0.604792 1.62656 
713 3 -1 14.9179 1.87721 3.00482 
612 2 0 12.0763 0.932851 3.52041 
604 2 0 11.5328 1.34337 1.32843 
911 3 -1 12.1589 2.41447 2.14615 
609 2 0 12.9562 1.55493 3.33791 
622 2 0 12.7334 2.84045 1.45442 
607 2 0 13.0531 1.96284 2.41256 
621 2 0 12.0002 3.27613 0.932698 
608 2 0 13.2977 2.88562 2.2065 
605 2 0 12.6964 1.49953 1.62034 
606 2 0 13.5158 1.50676 1.14841 
610 2 0 13.2314 2.40116 3.52062 
904 3 -1 13.6209 3.36047 1.41507 
603 2 0 12.2617 0.718999 1.3646 
905 3 -1 13.5381 3.28745 3.36545 
903 3 -1 14.4032 1.90312 1.33121 
860 3 -1 11.6452 0.046947 3.0866 
207 2 0 13.2183 0.834792 2.54602 
902 3 -1 12.0308 2.10534 1.09427 
702 3 -1 14.319 0.786992 3.04551 
204 2 0 14.3336 0.420783 2.13016 
704 3 -1 11.4927 0.355332 1.99854 
601 2 0 11.7057 0.12353 0.901081 
209 2 0 13.0476 0.371567 3.39081 
208 2 0 12.3563 0.443495 2.34342 
224 2 0 0.292092 4.1263 1.56546 
227 2 0 0.764037 3.84603 3.18767 
324 2 0 3.09087 4.24943 2.04641 
721 3 -1 0.181984 5.89697 2.51341 
341 2 0 2.92475 5.99453 0.985727 
343 2 0 2.99946 5.59971 1.86842 
344 2 0 2.35735 6.25425 2.16553 
772 3 -1 1.69835 6.26546 1.42954 
374 2 0 2.23935 7.17028 3.56663 
342 2 0 3.5767 5.20262 1.01432 
771 3 -1 3.63387 4.12983 1.05721 
722 3 -1 0.717498 7.25748 1.56696 
345 2 0 3.57887 5.80366 2.60316 
348 2 0 2.75973 4.8073 3.43692 
773 3 -1 3.34432 6.69122 1.70446 
712 3 -1 0.432409 4.53457 2.47684 
244 2 0 0.462911 6.32715 1.63364 
358 2 0 1.64116 4.43263 3.58554 
787 3 -1 2.11362 7.2382 2.63364 
774 3 -1 2.10492 5.42961 3.2388 
347 2 0 3.16719 5.66405 3.39039 
552 2 0 6.05886 4.01231 3.10138 
762 3 -1 3.82668 4.93756 2.01823 
346 2 0 3.99589 6.72412 2.48043 
422 2 0 6.39259 3.97517 1.15286 
812 3 -1 5.19189 4.3896 2.24685 
821 3 -1 6.19498 6.73014 1.85097 
822 3 -1 4.77023 5.42992 2.44949 
811 3 -1 5.49049 4.29583 1.13949 
449 2 0 6.54714 5.85843 3.46149 
441 2 0 5.68875 6.25725 0.909563 
442 2 0 5.43457 6.27536 1.82381 
443 2 0 6.22906 5.53656 1.31685 
445 2 0 6.90587 5.2398 1.89315 
446 2 0 6.24201 4.65997 2.3292 
447 2 0 7.07183 5.46457 2.77999 
444 2 0 5.40494 5.25407 1.71864 
450 2 0 5.9975 6.5816 3.15735 
448 2 0 7.37974 6.16868 2.07816 
824 3 -1 7.17513 7.03386 1.60995 
548 2 0 7.46648 3.94441 1.944 
549 2 0 7.29262 3.93325 3.08597 
551 2 0 6.73734 4.58899 3.47636 
672 2 0 9.74978 7.08303 3.50219 
918 3 -1 10.4466 4.14779 3.37381 
624 2 0 11.0722 4.16868 1.10863 
628 2 0 10.5415 4.8599 2.59292 
936 3 -1 9.58853 7.32891 2.55703 
872 3 -1 9.13513 4.47113 2.30525 