ITEM: TIMESTEP
5800
ITEM: NUMBER OF ATOMS
1500
ITEM: BOX BOUNDS pp pp ff
0 15
0 15
0 42
ITEM: ATOMS id type q x y z 
204 2 0 0.561703 0.543092 2.18669 
404 2 0 3.03533 1.0575 1.66612 
441 2 0 2.8455 3.2279 0.944955 
443 2 0 2.56361 2.9296 1.78827 
446 2 0 2.4847 1.66341 2.27156 
1302 3 -1 2.74458 1.91929 1.30703 
1323 3 -1 2.43463 0.709803 2.36698 
1304 3 -1 1.72365 0.459467 3.20777 
445 2 0 2.2084 2.5304 2.60392 
243 2 0 0.0781386 2.77104 1.87308 
245 2 0 0.500433 2.2688 2.57293 
1245 3 -1 2.38032 3.02932 3.57513 
444 2 0 3.18713 3.54896 2.10857 
1221 3 -1 1.01616 3.16192 1.89127 
447 2 0 1.91253 1.98134 3.36708 
248 2 0 0.569603 1.0377 3.481 
442 2 0 3.64468 3.06346 1.36446 
246 2 0 0.293083 2.97073 3.23656 
202 2 0 0.0725476 1.20331 1.10205 
1201 3 -1 0.585562 2.04068 1.1804 
405 2 0 3.33345 0.200187 2.9355 
403 2 0 3.20074 0.139316 2.00158 
401 2 0 3.25348 0.2079 1.0454 
1224 3 -1 0.517681 0.12198 3.15997 
1321 3 -1 3.95499 2.19631 1.72933 
603 2 0 5.94672 0.493077 1.88957 
604 2 0 6.83742 0.553361 1.53784 
605 2 0 5.96815 0.583089 2.80742 
641 2 0 5.90174 2.8635 0.990912 
643 2 0 5.60681 2.17855 1.55073 
645 2 0 5.49174 1.51578 2.22 
646 2 0 6.45673 1.5105 2.27519 
644 2 0 4.92478 2.58019 2.08756 
1423 3 -1 7.37913 1.31309 2.24841 
1545 3 -1 6.69644 2.6908 3.41935 
601 2 0 6.01297 0.138673 0.999086 
1422 3 -1 4.0962 2.87037 2.5173 
642 2 0 5.7743 3.18467 1.88503 
1421 3 -1 6.01207 2.45504 2.44823 
1445 3 -1 4.78918 3.7134 1.84437 
1522 3 -1 6.98387 3.32406 2.06841 
402 2 0 4.21869 0.151564 1.13791 
647 2 0 5.39783 1.38861 3.1924 
1402 3 -1 7.75248 0.661469 1.31328 
890 2 0 7.58273 3.08572 3.35888 
1502 3 -1 8.51289 1.45115 2.31606 
804 2 0 8.79398 0.635911 2.00013 
841 2 0 8.81091 3.17532 0.99698 
843 2 0 8.82454 2.96054 1.91511 
845 2 0 8.51171 2.78448 2.77915 
846 2 0 9.41334 2.3435 2.8181 
1521 3 -1 9.71042 1.50794 1.5236 
1044 2 0 10.8872 2.67672 1.65632 
842 2 0 9.25413 2.23489 1.1408 
1046 2 0 10.6583 3.11845 2.64272 
1622 3 -1 9.95603 2.56929 1.83003 
1523 3 -1 10.2857 1.99796 2.85482 
844 2 0 7.92287 3.16935 1.80256 
1623 3 -1 9.90888 3.58718 2.20579 
1006 2 0 10.8902 0.473146 2.62021 
1008 2 0 10.2014 14.9156 3.51637 
1202 3 -1 14.883 1.01621 2.64284 
201 2 0 14.9997 0.2124 0.964263 
1045 2 0 11.4807 2.5828 2.79631 
1047 2 0 11.2354 2.03757 3.5274 
241 2 0 15.043 3.16706 1.00203 
1041 2 0 11.867 2.75998 0.972607 
1043 2 0 11.7629 2.87212 1.91536 
1042 2 0 11.4517 3.5916 1.20389 
1621 3 -1 12.4139 3.62601 1.3308 
1001 2 0 11.9627 0.232357 0.973005 
1002 2 0 11.9054 0.844512 1.67418 
1601 3 -1 11.6406 1.77692 1.60882 
244 2 0 14.9155 3.58906 2.41391 
1645 3 -1 11.502 3.69982 3.02436 
1603 3 -1 11.7122 0.695622 3.17587 
242 2 0 0.497482 3.89794 1.39796 
1243 3 -1 1.83061 3.77064 1.47451 
1322 3 -1 3.85622 4.14961 2.57192 
287 2 0 0.636242 4.31449 3.21834 
284 2 0 1.35381 5.64616 1.75177 
286 2 0 1.25229 4.3975 1.89556 
481 2 0 3.16641 5.75652 0.954267 
483 2 0 3.26567 5.17024 1.68966 
1242 3 -1 2.25385 5.87656 1.68485 
482 2 0 2.89356 6.68226 1.18711 
485 2 0 3.06504 4.83624 2.60076 
281 2 0 0.224828 6.08557 1.00185 
283 2 0 0.424031 5.58179 1.80314 
285 2 0 0.672824 4.94535 2.48036 
487 2 0 2.82074 4.38086 3.42095 
486 2 0 2.72543 5.64091 3.06703 
282 2 0 0.945452 6.7928 1.08302 
1241 3 -1 1.5461 6.97866 1.80029 
484 2 0 3.58334 5.86456 2.33951 
1263 3 -1 2.11252 7.50675 3.10026 
1442 3 -1 3.5687 6.80818 2.05475 
1342 3 -1 3.94915 6.3924 3.06817 
681 2 0 5.86349 6.23571 0.976254 
682 2 0 6.02858 6.80256 1.75187 
683 2 0 5.29716 6.10839 1.75519 
684 2 0 4.53488 6.684 2.01118 
685 2 0 4.68035 5.76302 2.50041 
686 2 0 5.26963 5.03385 2.67333 
1443 3 -1 5.97519 4.4907 2.13847 
1441 3 -1 5.3895 7.29198 1.27874 
687 2 0 4.27315 5.13239 3.12892 
1463 3 -1 6.97494 7.26443 2.96157 
1341 3 -1 3.83813 6.68154 1.06707 
727 2 0 5.00704 7.25476 3.18062 
726 2 0 6.02908 7.40481 2.8548 
1563 3 -1 7.37462 7.2057 1.24853 
690 2 0 4.83654 3.87519 2.80482 
689 2 0 4.712 4.4369 3.58657 
1446 3 -1 6.07504 5.2785 3.52847 
1544 3 -1 7.20906 5.02145 3.20675 
887 2 0 8.51893 3.78908 2.58087 
881 2 0 9.11107 6.11502 0.988598 
882 2 0 8.69928 6.74923 1.62414 
883 2 0 8.90948 5.35325 1.52267 
884 2 0 9.13561 5.98142 2.20757 
885 2 0 8.63965 4.63105 2.07915 
886 2 0 9.58753 4.5163 1.6814 
1541 3 -1 9.68296 6.82275 1.81492 
1542 3 -1 8.76755 6.63286 2.8125 
1543 3 -1 10.3153 4.17525 1.18661 
1084 2 0 11.0469 6.35964 1.30903 
1642 3 -1 10.8974 7.34073 1.26863 
1087 2 0 10.2366 4.79092 2.78797 
1085 2 0 10.5547 5.19652 2.00769 
888 2 0 7.95427 4.39025 2.99652 
1644 3 -1 8.55132 5.6286 3.02895 
1088 2 0 9.3658 5.18898 2.73779 
1083 2 0 11.1558 5.41537 1.25794 
1086 2 0 10.2671 5.93164 2.41512 
1090 2 0 10.6399 3.93937 3.33694 
1565 3 -1 7.79113 5.75277 2.10461 
930 2 0 7.77581 6.28675 2.94683 
1643 3 -1 9.85898 6.57388 2.97602 
1129 2 0 9.63682 7.39589 3.61136 
1222 3 -1 14.562 4.44324 2.70009 
1081 2 0 11.9361 5.94935 0.952989 
1082 2 0 12.065 6.18501 1.83689 
1641 3 -1 11.865 5.2901 2.23105 
1126 2 0 11.5223 7.37492 2.76739 
1663 3 -1 12.0769 6.77553 3.25237 
1361 3 -1 2.83609 8.06721 2.25707 
323 2 0 0.984731 9.04176 1.52149 
324 2 0 0.325425 8.7628 2.22361 
325 2 0 1.81255 8.99487 2.07266 
326 2 0 1.80642 8.12147 2.39325 
521 2 0 2.88889 8.9808 0.986951 
522 2 0 2.42993 8.26014 1.42702 
327 2 0 2.49018 9.31391 2.67991 
328 2 0 1.99196 10.0815 2.79148 
1264 3 -1 1.44855 10.8228 2.85935 
1285 3 -1 3.81076 9.64971 2.52328 
321 2 0 0.201767 9.11615 0.973006 
1261 3 -1 0.287 7.54002 1.78658 
322 2 0 0.0601319 8.15147 1.06051 
370 2 0 3.59822 10.5694 2.73887 
1381 3 -1 2.71876 10.8749 2.25371 
362 2 0 0.283699 11.1377 1.44831 
523 2 0 3.6201 8.53633 1.38771 
562 2 0 3.07045 11.08 1.35132 
526 2 0 4.01663 7.69444 2.55741 
524 2 0 3.92562 9.47599 1.30453 
525 2 0 4.14188 8.52407 2.14449 
1362 3 -1 4.1076 10.4813 1.22024 
721 2 0 5.73428 8.86492 0.93638 
722 2 0 6.43956 8.63043 1.61687 
723 2 0 5.43493 8.33549 1.66117 
724 2 0 5.56321 8.74988 2.552 
725 2 0 5.19901 7.75974 2.40774 
1462 3 -1 6.04191 9.11504 3.26948 
765 2 0 6.09655 10.722 2.67444 
766 2 0 6.66574 10.0242 2.46157 
528 2 0 4.79372 9.43855 2.52604 
527 2 0 4.60664 8.60739 2.98365 
767 2 0 6.19547 10.2528 3.471 
1364 3 -1 5.37692 9.97432 2.00099 
1461 3 -1 6.38906 7.72148 1.33604 
1483 3 -1 7.28763 9.36244 2.2496 
1484 3 -1 4.63602 11.2167 3.50839 
927 2 0 8.04915 7.66657 3.06211 
1128 2 0 10.1261 8.59735 3.04234 
926 2 0 7.65567 7.85243 1.85946 
921 2 0 9.06253 8.95027 0.962081 
922 2 0 9.65354 9.60691 1.37009 
923 2 0 8.52109 8.63223 1.66105 
924 2 0 8.50438 9.59273 1.58708 
925 2 0 8.14376 8.4709 2.50186 
1561 3 -1 9.46746 8.91469 2.05327 
1562 3 -1 8.72571 10.4831 1.29596 
1125 2 0 10.8681 7.97037 2.26405 
928 2 0 8.67672 7.6311 2.34722 
967 2 0 8.34974 10.327 3.11212 
1127 2 0 10.1529 7.62427 2.84473 
1564 3 -1 9.31274 7.84078 1.58781 
1661 3 -1 10.5688 9.1922 2.1265 
1122 2 0 10.8736 9.3277 1.191 
965 2 0 8.6201 10.9048 2.39221 
1683 3 -1 9.54679 10.981 2.76445 
1664 3 -1 9.82433 9.32343 3.58683 
1485 3 -1 7.80275 9.01647 3.36012 
1662 3 -1 13.0024 8.93941 2.26201 
1262 3 -1 14.9298 8.16381 2.91404 
1123 2 0 11.3408 8.39289 1.5623 
1124 2 0 12.1592 8.57114 2.03459 
1121 2 0 11.7415 9.0042 1.00104 
1681 3 -1 11.5399 10.867 1.73626 
408 2 0 2.49978 0.0776335 3.56845 
208 2 0 0.924556 13.8579 3.28192 
1282 3 -1 0.362843 11.9404 3.2841 
203 2 0 0.728214 14.8679 1.489 
205 2 0 1.30411 14.7616 2.33318 
207 2 0 1.72314 14.3439 3.18572 
206 2 0 0.767711 13.9314 2.08014 
1203 3 -1 0.771007 13.4136 1.33652 
363 2 0 1.10695 11.7665 1.4158 
364 2 0 0.65218 12.0027 2.26696 
365 2 0 1.89712 11.9266 2.03594 
366 2 0 1.90314 12.8331 2.1156 
561 2 0 3.08574 11.9776 1.01612 
563 2 0 3.63894 12.2081 1.70466 
564 2 0 3.06637 12.8888 2.03509 
1382 3 -1 2.70126 13.7848 2.28714 
367 2 0 2.73543 11.8271 2.56396 
1283 3 -1 1.7397 13.7554 2.43457 
368 2 0 2.28985 11.4681 3.34972 
361 2 0 0.268555 11.9208 0.961464 
369 2 0 3.44084 11.439 3.11164 
406 2 0 3.54025 14.2925 2.63688 
1303 3 -1 3.97748 13.5538 2.13875 
606 2 0 6.49192 14.8476 2.74638 
565 2 0 3.77162 12.3485 2.64708 
1301 3 -1 4.8255 14.4873 1.46066 
1401 3 -1 6.17348 14.4825 1.72388 
568 2 0 4.84425 12.6742 3.50599 
1384 3 -1 5.79161 12.5202 3.33321 
762 2 0 6.58022 12.2974 1.68455 
602 2 0 6.65538 14.4373 0.960988 
566 2 0 4.64485 12.5885 2.38366 
761 2 0 6.10323 11.8507 0.976255 
763 2 0 6.04471 11.1542 1.76092 
764 2 0 5.19532 11.3025 2.10957 
1383 3 -1 5.34071 12.4197 1.71682 
1482 3 -1 4.31765 11.5027 2.44732 
1481 3 -1 7.13033 11.5703 1.76781 
1403 3 -1 7.23233 14.1822 2.69601 
1404 3 -1 5.07646 13.6081 2.97425 
608 2 0 5.23709 14.5011 3.20893 
803 2 0 9.29862 14.8535 1.92439 
801 2 0 9.22891 14.7656 0.994593 
1582 3 -1 7.89681 12.9089 1.20337 
1581 3 -1 10.0654 12.0427 1.33766 
966 2 0 7.99083 11.524 2.74693 
805 2 0 8.79246 14.7225 2.77392 
807 2 0 8.09405 14.1918 3.19723 
802 2 0 10.0445 14.2914 1.1669 
962 2 0 9.45613 12.6406 1.88332 
1501 3 -1 10.1091 13.7299 2.08123 
961 2 0 9.12331 12.1469 1.02079 
963 2 0 8.88649 11.5086 1.72197 
964 2 0 8.25421 12.2351 1.7441 
1165 2 0 10.4192 12.5149 2.25658 
1167 2 0 9.79228 12.9031 2.78529 
1168 2 0 10.393 13.6166 3.09911 
1005 2 0 10.4951 14.7406 2.0809 
1163 2 0 11.0663 12.2155 1.61166 
1166 2 0 9.95212 11.7625 2.36713 
1684 3 -1 10.9965 14.3703 3.31257 
1007 2 0 9.79806 14.434 2.76275 
1003 2 0 11.1196 0.142983 1.422 
1583 3 -1 7.67128 12.3836 2.75702 
1685 3 -1 10.6256 11.164 2.99685 
1170 2 0 10.1691 11.9476 3.36781 
1281 3 -1 14.5231 11.6961 1.57839 
1004 2 0 11.1941 14.1337 1.4831 
1602 3 -1 11.7332 13.2998 1.31944 
1164 2 0 11.591 12.7369 2.20004 
1682 3 -1 12.2244 13.1455 2.67615 
1161 2 0 11.8578 12.0837 1.01188 
1162 2 0 11.8708 11.7379 1.91304 
290 2 0 1.75529 3.60272 3.97485 
247 2 0 0.787806 2.02844 3.47392 
289 2 0 0.807823 3.65749 3.90301 
448 2 0 2.86682 1.77501 3.52825 
249 2 0 0.918624 1.99852 4.39609 
251 2 0 1.11528 2.01387 5.31003 
449 2 0 1.85111 1.48977 4.20135 
451 2 0 1.68292 1.11318 5.05402 
452 2 0 2.32785 0.439909 4.69336 
1205 3 -1 0.877916 0.341325 4.2679 
253 2 0 1.1745 2.28281 6.28718 
254 2 0 0.838077 1.48952 6.65976 
453 2 0 1.51504 0.716199 5.95844 
454 2 0 2.16102 1.39522 6.06688 
1307 3 -1 3.05898 0.790571 5.84067 
1327 3 -1 2.91715 1.9846 6.15863 
250 2 0 1.62748 2.59167 4.18469 
1406 3 -1 3.26 1.66645 5.29833 
252 2 0 0.181447 2.15776 5.43185 
450 2 0 2.22046 1.99622 4.96384 
1325 3 -1 2.1516 2.45076 5.80472 
295 2 0 1.08992 3.42509 6.53842 
493 2 0 2.68669 3.39931 6.14949 
293 2 0 0.952472 3.05123 5.67104 
291 2 0 0.774005 3.09924 4.73539 
292 2 0 0.0691668 2.62536 4.29995 
1225 3 -1 2.37546 2.92051 4.63531 
455 2 0 1.502 0.547952 6.95146 
494 2 0 3.68048 3.5247 6.20328 
491 2 0 2.60594 3.7688 5.28997 
294 2 0 1.60924 3.49862 5.12698 
490 2 0 3.42766 3.41039 4.27631 
1326 3 -1 3.15835 0.0165324 4.55797 
256 2 0 0.260739 2.47477 6.78686 
1345 3 -1 4.16157 2.85652 3.91623 
648 2 0 5.70627 2.19365 3.57308 
1524 3 -1 6.72412 1.52335 3.64638 
607 2 0 5.36112 0.426365 3.55978 
1424 3 -1 5.94925 3.09137 3.93955 
1428 3 -1 3.9518 1.36917 6.23396 
1324 3 -1 3.75139 1.80494 3.97295 
609 2 0 4.77892 0.366173 4.30952 
611 2 0 4.57585 0.271457 5.30867 
612 2 0 3.89639 0.977071 5.31223 
649 2 0 5.2885 1.33925 4.17562 
651 2 0 5.52798 1.11946 5.10546 
613 2 0 4.10924 -0.000303389 6.07157 
653 2 0 5.39673 0.616399 5.9024 
654 2 0 6.33709 0.531523 5.8941 
650 2 0 4.97512 2.1822 4.49278 
652 2 0 5.97688 1.72801 5.7253 
1426 3 -1 6.63408 2.37822 6.15093 
853 2 0 6.92432 1.43282 5.90658 
1526 3 -1 6.00423 0.5527 4.55548 
1347 3 -1 4.61401 3.38136 5.96383 
656 2 0 4.58048 0.789518 6.69297 
852 2 0 6.6809 1.14722 4.92184 
1425 3 -1 4.5112 2.85991 5.01994 
697 2 0 5.60387 3.31847 6.81818 
655 2 0 5.36505 0.26944 6.81743 
496 2 0 3.74333 2.90375 6.96537 
851 2 0 7.30837 1.85524 5.114 
1506 3 -1 6.54735 0.520943 3.58904 
895 2 0 7.20812 3.44159 6.06257 
854 2 0 7.39082 0.734666 6.40064 
693 2 0 5.35813 3.68219 5.05712 
695 2 0 5.54791 3.59657 5.97232 
855 2 0 6.27759 1.32082 6.66224 
1348 3 -1 4.6892 2.68507 6.66279 
897 2 0 6.89828 3.09812 6.90933 
806 2 0 8.9917 0.288099 3.5714 
1504 3 -1 7.9128 0.871978 4.01213 
1624 3 -1 9.91397 3.13427 4.17893 
848 2 0 7.49959 2.01097 3.56019 
1503 3 -1 9.25036 0.849714 4.37466 
808 2 0 7.79747 14.983 3.68829 
1604 3 -1 10.6853 0.532738 4.12016 
1048 2 0 10.6901 2.76189 3.76686 
849 2 0 8.02762 2.13033 4.54051 
893 2 0 7.69166 3.43126 5.156 
847 2 0 8.31589 2.3966 3.63689 
850 2 0 8.43915 1.32152 4.88835 
1525 3 -1 8.90384 0.721915 5.50881 
1055 2 0 9.26479 1.07525 6.58253 
1049 2 0 10.7535 1.64582 4.20195 
1051 2 0 10.2024 1.3067 4.93426 
1053 2 0 9.73887 1.30022 5.81398 
1054 2 0 10.2335 0.635082 6.359 
1052 2 0 9.4064 1.80655 4.81402 
1626 3 -1 9.01254 2.57532 4.39545 
1648 3 -1 7.63104 2.29189 6.10238 
1056 2 0 9.47906 2.04583 6.75029 
1625 3 -1 10.7521 3.20868 5.08172 
1050 2 0 10.5979 2.37508 4.75358 
1096 2 0 8.16255 2.95299 6.36086 
891 2 0 8.11814 3.40374 4.26233 
889 2 0 8.50309 3.4165 3.43707 
1093 2 0 9.1267 3.7542 5.11893 
1095 2 0 8.8163 3.56852 6.03034 
1605 3 -1 10.0564 0.294567 4.97728 
1097 2 0 8.74969 3.53786 7.00252 
1226 3 -1 14.28 2.36517 5.12634 
1246 3 -1 14.7243 2.0023 3.6552 
1228 3 -1 14.5445 2.62436 6.18527 
288 2 0 1.44291 4.71522 3.64396 
1244 3 -1 1.93022 5.33589 4.25931 
296 2 0 1.59392 4.08893 6.1517 
488 2 0 3.66728 4.7133 3.84956 
489 2 0 2.78386 4.08143 4.39291 
1247 3 -1 1.78351 4.43284 4.83441 
1343 3 -1 2.37522 6.25652 3.6756 
492 2 0 3.3314 4.29553 5.58014 
1248 3 -1 2.2296 4.72512 5.79257 
1344 3 -1 4.25221 4.98105 4.61684 
688 2 0 4.87505 5.60428 3.65725 
1444 3 -1 5.6207 6.13198 4.01688 
1346 3 -1 4.01991 4.90017 5.82073 
691 2 0 5.12266 3.72843 4.1136 
692 2 0 5.77799 4.36985 3.71217 
696 2 0 6.06713 4.31809 5.55804 
694 2 0 6.13237 4.09562 4.60099 
1447 3 -1 6.69411 4.68753 4.08823 
729 2 0 4.68849 6.76257 3.9239 
731 2 0 4.53921 6.2481 4.78782 
733 2 0 4.38635 5.84577 5.66281 
734 2 0 5.30316 5.58271 5.66149 
735 2 0 4.19557 5.77835 6.67544 
1448 3 -1 6.5316 4.91187 5.04671 
935 2 0 7.13038 6.29239 6.28992 
1467 3 -1 6.27372 5.65147 5.85985 
736 2 0 5.03211 6.22417 6.49685 
936 2 0 6.61153 7.18576 6.43501 
894 2 0 7.53085 4.36497 5.49337 
1547 3 -1 7.24199 5.16714 5.84054 
933 2 0 7.27942 6.41958 5.37834 
732 2 0 4.69876 6.75881 5.57372 
730 2 0 5.17918 7.21843 4.52948 
1466 3 -1 5.1017 7.35861 6.34107 
1468 3 -1 5.76343 6.55286 6.03632 
934 2 0 7.184 7.37233 5.44215 
698 2 0 5.09438 4.14787 6.77481 
1569 3 -1 6.70894 4.43544 6.72037 
938 2 0 7.04587 5.32503 6.96677 
1089 2 0 9.80986 4.44313 3.55296 
892 2 0 7.81462 4.36475 4.26074 
1546 3 -1 8.26441 5.22092 4.06786 
1092 2 0 9.62531 4.73564 4.88788 
1646 3 -1 9.1145 5.47347 5.11582 
1133 2 0 8.86954 6.73531 5.21174 
896 2 0 7.74487 4.00985 6.64393 
1135 2 0 8.55126 6.48973 6.03954 
1091 2 0 9.35217 3.98417 4.25399 
1094 2 0 9.96618 3.9655 5.59852 
1131 2 0 9.18355 6.99935 4.38481 
1647 3 -1 10.7847 4.31113 5.98344 
1136 2 0 9.35539 5.89935 5.99768 
1134 2 0 9.65681 7.05807 5.56082 
1667 3 -1 10.5039 7.43187 5.94447 
1668 3 -1 10.1193 5.34019 5.90498 
1137 2 0 8.23098 6.00302 6.76522 
929 2 0 7.79868 6.99118 3.71839 
931 2 0 7.55057 6.54869 4.49155 
932 2 0 8.09223 7.29943 4.8099 
1548 3 -1 8.26291 4.82905 6.67714 
1223 3 -1 14.8237 3.70769 3.67511 
1249 3 -1 15.0198 4.80366 6.84418 
1284 3 -1 1.92616 10.9804 4.06726 
329 2 0 2.95866 9.37593 3.51567 
1365 3 -1 3.341 8.11548 4.13616 
1265 3 -1 1.27693 9.99713 4.00664 
1266 3 -1 2.39283 8.33816 5.50002 
330 2 0 2.07622 9.51729 3.72472 
332 2 0 2.87348 8.8657 4.76133 
334 2 0 3.63769 8.3402 5.16652 
1267 3 -1 2.95444 7.65197 4.94501 
331 2 0 3.42194 9.48853 4.32315 
375 2 0 3.61344 9.99345 5.55932 
377 2 0 3.50244 9.74099 6.49544 
378 2 0 2.65032 9.34173 6.16779 
371 2 0 3.70621 11.0351 3.93113 
376 2 0 2.74575 9.95245 5.20995 
1288 3 -1 1.78032 9.92002 5.03908 
1289 3 -1 1.75522 8.99433 5.99462 
728 2 0 5.45285 7.84078 3.73365 
530 2 0 4.05763 8.68331 3.84523 
1367 3 -1 3.9916 7.56297 5.97476 
333 2 0 3.95657 9.21786 5.06481 
335 2 0 4.11823 9.05168 6.00721 
373 2 0 3.78774 10.4672 4.74589 
1363 3 -1 3.77135 7.31525 3.41725 
768 2 0 5.32569 10.6144 3.62763 
1464 3 -1 6.16244 8.56417 4.15584 
336 2 0 4.57865 9.87995 5.99212 
529 2 0 5.02869 8.86813 3.76947 
531 2 0 5.15614 9.05454 4.72291 
769 2 0 6.21525 9.63969 4.23078 
770 2 0 6.97401 9.21499 3.84024 
771 2 0 6.35407 9.3154 5.15495 
772 2 0 6.97584 10.0122 5.15574 
533 2 0 5.25496 8.92436 5.65113 
534 2 0 4.68999 8.15408 5.71795 
773 2 0 6.29334 9.11348 6.10354 
774 2 0 6.26788 10.0696 5.98839 
1465 3 -1 5.47738 8.075 4.98688 
1586 3 -1 6.95139 7.99459 4.49464 
535 2 0 5.33488 8.96373 6.61084 
1487 3 -1 6.14899 11.0129 5.73012 
532 2 0 4.84498 9.91404 4.50805 
536 2 0 5.55093 9.93924 6.77143 
1268 3 -1 5.11199 10.6743 5.61721 
1368 3 -1 5.64962 10.8373 6.82767 
374 2 0 3.86044 11.1877 5.47737 
972 2 0 7.4419 8.82251 4.71997 
1567 3 -1 7.00328 8.25901 5.62864 
1486 3 -1 7.45876 10.8632 5.35536 
1366 3 -1 4.66298 10.9173 4.45604 
776 2 0 6.58359 9.68609 7.03862 
1488 3 -1 7.01586 10.5212 6.84134 
1585 3 -1 10.0691 10.6082 3.73748 
1132 2 0 9.18187 7.84081 4.66108 
1666 3 -1 9.21234 8.75919 4.86763 
1566 3 -1 8.58846 7.82041 5.49556 
1130 2 0 9.31752 8.29201 3.70614 
969 2 0 8.25544 9.98161 3.98114 
971 2 0 8.22746 9.3742 4.67125 
973 2 0 8.18482 8.95539 5.55705 
974 2 0 8.89579 9.6764 5.60198 
970 2 0 9.16012 10.3274 3.86282 
1665 3 -1 8.79155 9.0772 3.77076 
976 2 0 8.61186 9.32466 6.67913 
975 2 0 8.23756 8.55569 6.34705 
968 2 0 8.29049 10.9826 3.79697 
1588 3 -1 9.02878 10.2106 6.85216 
1587 3 -1 9.67142 10.1924 5.45822 
407 2 0 3.29997 14.5165 3.69003 
1306 3 -1 1.36952 14.8972 5.25522 
414 2 0 3.05102 14.856 5.98646 
1206 3 -1 1.64972 11.7888 4.66143 
1204 3 -1 0.240093 13.4653 3.81421 
210 2 0 1.70035 14.8245 4.26188 
212 2 0 1.99069 12.7089 4.86752 
409 2 0 3.03618 13.9076 4.3649 
412 2 0 2.25088 14.5817 5.40224 
214 2 0 1.59601 13.7824 5.81677 
209 2 0 1.98795 13.9433 3.98301 
211 2 0 2.19495 13.6572 4.95021 
411 2 0 3.06763 14.0304 5.33903 
213 2 0 2.42951 13.3239 5.82698 
215 2 0 2.30761 13.1773 6.79043 
413 2 0 3.02416 13.9806 6.27574 
372 2 0 3.13756 11.6508 4.41731 
1386 3 -1 3.68768 13.0108 6.05245 
1286 3 -1 2.86459 12.0903 5.26043 
216 2 0 1.58487 12.8492 6.34596 
1208 3 -1 0.805079 12.6535 5.87992 
1308 3 -1 1.36241 14.5612 6.8865 
1207 3 -1 0.768879 14.2782 6.06142 
615 2 0 3.70752 14.7839 6.92173 
1427 3 -1 6.92436 14.9142 5.50181 
812 2 0 6.63561 14.7126 4.148 
1527 3 -1 7.45751 14.8078 6.69353 
1287 3 -1 3.70976 11.5776 6.35384 
410 2 0 3.88532 14.2655 4.70715 
572 2 0 4.11071 12.2867 5.64233 
610 2 0 5.45173 14.6316 4.18585 
816 2 0 7.33569 13.8188 6.0952 
567 2 0 4.05237 12.2021 3.67457 
1385 3 -1 6.01794 11.4852 3.49593 
1405 3 -1 5.96314 13.9263 3.74801 
614 2 0 4.12857 14.1117 5.78101 
1407 3 -1 4.75616 13.4097 5.89934 
1305 3 -1 4.86043 14.2623 4.89203 
1388 3 -1 4.34371 13.4744 6.93948 
1387 3 -1 5.89102 12.8934 5.49481 
569 2 0 4.46029 12.0342 4.48108 
570 2 0 5.3106 11.9085 4.0534 
571 2 0 4.90443 11.8469 5.2597 
573 2 0 4.83082 11.5734 6.13375 
574 2 0 5.58952 12.097 6.00283 
811 2 0 6.75747 13.8369 4.55856 
813 2 0 6.45424 13.8146 5.44963 
815 2 0 6.48137 13.5947 6.37826 
814 2 0 6.97895 13.0031 5.25167 
809 2 0 7.37954 13.9634 3.76982 
576 2 0 4.81082 12.621 6.97198 
1508 3 -1 8.12394 14.3829 5.72503 
1606 3 -1 7.73619 14.6487 4.73667 
1687 3 -1 10.6658 11.3703 5.57553 
1584 3 -1 7.94408 11.4153 4.56012 
1169 2 0 9.60413 12.7155 3.73044 
1505 3 -1 8.39025 12.2865 3.62828 
1012 2 0 8.24509 13.968 4.26498 
1507 3 -1 7.63919 12.2325 5.16885 
1010 2 0 9.62854 14.6381 4.4073 
1014 2 0 9.56626 12.9831 5.41876 
1627 3 -1 10.9389 0.193452 6.80378 
1607 3 -1 10.4814 12.7126 5.56583 
1009 2 0 9.34308 14.1087 3.58386 
1011 2 0 9.13852 13.5015 4.28733 
1013 2 0 8.75959 13.3496 5.12594 
810 2 0 7.7504 13.066 3.71929 
1171 2 0 9.1692 12.3923 4.56156 
1172 2 0 10.0895 12.0599 4.63746 
1173 2 0 8.82489 12.1406 5.47302 
1174 2 0 9.74637 11.6794 5.6091 
1686 3 -1 11.0518 11.8481 4.6602 
1176 2 0 9.12273 11.6762 6.53118 
1688 3 -1 10.0247 11.4672 6.72725 
1175 2 0 8.25958 11.8792 6.22594 
1016 2 0 9.07646 13.9683 6.12354 
1015 2 0 8.45357 13.2619 6.01605 
1608 3 -1 9.42047 14.8507 6.14974 
1509 3 -1 8.21827 13.9413 6.98112 
1017 2 0 8.20375 13.0025 6.91637 
1018 2 0 9.14245 13.2057 7.02431 
495 2 0 2.84687 3.2044 7.09531 
1227 3 -1 0.48884 1.08158 7.39631 
297 2 0 1.38588 3.72158 7.36018 
255 2 0 1.16956 2.44247 7.24375 
257 2 0 1.69559 2.6844 8.01686 
457 2 0 1.43599 0.488335 7.87729 
459 2 0 1.29615 0.349634 8.83416 
460 2 0 2.10744 0.895126 9.03493 
461 2 0 0.955609 0.526136 9.7363 
258 2 0 2.03228 1.78742 8.23536 
456 2 0 1.82142 1.41977 7.06817 
1229 3 -1 2.41583 0.882179 8.15983 
1330 3 -1 3.022 1.10034 9.32142 
1328 3 -1 2.46858 2.11102 7.14291 
497 2 0 3.12836 2.89887 7.99363 
499 2 0 3.05406 2.69081 8.97477 
300 2 0 1.14796 3.42208 8.56469 
259 2 0 2.02764 3.00615 8.85381 
261 2 0 2.05486 3.30773 9.80126 
501 2 0 3.08536 2.6469 9.93817 
1250 3 -1 1.1434 2.58177 9.11156 
260 2 0 2.29169 3.84383 8.49825 
500 2 0 2.86872 3.61446 9.35708 
1430 3 -1 3.4922 0.774483 8.49381 
502 2 0 3.66448 1.81305 9.69479 
616 2 0 3.86795 0.541656 7.40614 
1408 3 -1 4.25125 1.30872 7.84967 
859 2 0 5.9885 0.843274 8.48223 
861 2 0 5.89121 0.417773 9.3282 
659 2 0 5.23066 0.123401 8.65554 
857 2 0 6.08758 0.866928 7.48353 
858 2 0 7.04473 0.571711 7.49596 
860 2 0 6.89638 0.56593 8.58382 
1451 3 -1 5.21815 1.26894 8.95092 
1653 3 -1 6.71006 3.11284 9.82883 
702 2 0 5.30427 2.1619 8.63965 
902 2 0 6.33541 2.40078 8.91814 
498 2 0 4.03743 2.59547 7.91986 
699 2 0 5.2929 3.23662 7.66465 
1349 3 -1 4.8863 2.32558 7.64408 
901 2 0 5.92383 3.23664 8.56101 
705 2 0 4.01062 2.96366 10.1612 
899 2 0 6.50103 2.9693 7.77394 
1632 3 -1 6.87398 0.052979 9.59577 
903 2 0 5.56411 3.38395 9.5357 
701 2 0 4.98148 3.03209 8.56491 
700 2 0 4.39231 3.65242 7.51827 
703 2 0 4.51464 2.93165 9.38642 
863 2 0 6.08769 -0.0558112 10.1396 
864 2 0 6.4257 0.922302 10.1039 
856 2 0 6.81889 1.68 7.44194 
1528 3 -1 6.9791 2.22861 8.20758 
1551 3 -1 6.65178 1.49046 9.03369 
704 2 0 3.97516 3.42127 8.80898 
1532 3 -1 6.89771 1.7465 10.1264 
1351 3 -1 4.20878 1.02687 9.5251 
661 2 0 4.93694 0.243423 9.56483 
660 2 0 4.30938 0.257251 8.4332 
657 2 0 5.31806 0.261327 7.74411 
905 2 0 5.58235 3.6265 10.4687 
1628 3 -1 10.0943 2.73698 7.06828 
1098 2 0 9.70072 3.63122 7.21407 
1631 3 -1 8.32251 1.68038 9.5734 
1529 3 -1 7.91895 0.894202 7.41765 
1057 2 0 9.01273 0.666104 7.42867 
1059 2 0 8.83707 0.198661 8.26296 
1060 2 0 8.66031 1.12056 8.41722 
1549 3 -1 8.53899 2.27536 7.51031 
1630 3 -1 8.7031 2.03307 8.6082 
1062 2 0 8.63089 0.816426 9.5195 
1058 2 0 9.45561 1.43323 7.65566 
1629 3 -1 10.0204 2.15049 7.82314 
1103 2 0 8.42226 2.76575 9.66891 
898 2 0 7.54825 2.48019 7.14337 
1101 2 0 8.56554 3.26525 8.87153 
1102 2 0 9.37595 2.75511 8.85309 
1651 3 -1 10.2469 2.25467 8.89713 
1106 2 0 7.51316 2.7469 10.1869 
1530 3 -1 7.82249 0.269646 8.73669 
1104 2 0 8.40402 3.32651 10.3779 
1099 2 0 8.58598 3.46798 7.94112 
1673 3 -1 7.69018 3.59141 9.38586 
1105 2 0 8.32394 2.23941 10.4142 
1450 3 -1 3.47589 3.99943 7.3812 
1372 3 -1 3.45392 6.00496 10.4593 
262 2 0 1.40975 3.90735 9.45387 
299 2 0 1.40128 4.2418 8.17236 
1231 3 -1 0.712283 4.37932 9.01231 
298 2 0 0.604881 4.12517 7.01398 
302 2 0 2.20258 4.94786 8.25357 
301 2 0 1.59427 4.82086 8.92577 
1251 3 -1 2.72398 5.50687 7.63935 
1230 3 -1 2.36704 4.18381 7.58764 
303 2 0 2.06308 5.32287 9.59022 
304 2 0 2.37008 6.0094 8.97802 
1252 3 -1 2.89169 6.4418 8.24676 
544 2 0 3.7408 6.83583 10.0913 
1350 3 -1 2.37485 4.28142 9.92967 
1253 3 -1 2.78905 7.24775 9.46724 
306 2 0 2.51625 6.42247 9.95111 
305 2 0 2.49045 5.54031 10.3441 
1452 3 -1 3.30272 3.98171 8.37618 
1254 3 -1 2.02884 7.4953 10.5028 
900 2 0 6.32515 3.88712 7.75032 
904 2 0 4.91563 4.07493 9.42819 
706 2 0 4.47654 3.80531 10.3884 
943 2 0 7.34069 5.52653 9.98779 
1449 3 -1 4.77434 4.9029 7.24006 
1550 3 -1 5.86748 4.67931 7.43793 
1552 3 -1 4.42263 4.91941 9.21295 
942 2 0 6.47204 5.11302 9.17141 
737 2 0 4.14786 5.80588 7.66425 
738 2 0 5.08362 5.98716 7.48641 
739 2 0 4.38856 5.86096 8.59906 
741 2 0 4.54696 6.19773 9.49234 
742 2 0 5.43336 5.85753 9.71911 
940 2 0 6.23483 5.5686 8.19192 
941 2 0 7.20465 5.67038 9.04099 
937 2 0 7.09626 6.21289 7.22583 
939 2 0 7.18742 5.77352 8.08028 
740 2 0 4.8261 6.65285 8.56284 
1469 3 -1 5.98636 5.98651 7.1835 
1471 3 -1 6.33781 5.63824 10.1477 
1571 3 -1 5.68838 4.76102 9.74645 
1570 3 -1 5.33813 5.30585 8.44733 
1491 3 -1 7.26498 6.78238 8.6497 
944 2 0 7.44719 6.52804 9.95895 
1650 3 -1 7.37081 4.62226 8.84119 
1369 3 -1 5.38558 6.86068 7.25548 
782 2 0 7.01615 7.409 9.34214 
1490 3 -1 7.31618 7.3876 7.43296 
1572 3 -1 7.40283 7.4818 10.2931 
1453 3 -1 4.51135 4.75438 10.32 
1649 3 -1 10.6288 3.88363 7.40668 
1138 2 0 9.19556 6.05428 7.13111 
1672 3 -1 9.90672 6.22544 9.3648 
1143 2 0 8.33637 5.24239 9.53999 
1100 2 0 8.13561 4.25795 8.35232 
1139 2 0 8.21467 5.58036 7.65712 
1140 2 0 9.05302 4.99451 7.496 
1142 2 0 8.16184 6.22393 8.51081 
1141 2 0 8.16926 5.26558 8.55296 
1671 3 -1 8.36524 7.14078 8.66444 
1144 2 0 9.19444 5.61385 9.36879 
1670 3 -1 9.88282 4.60839 7.77902 
1669 3 -1 10.0003 6.47523 7.63381 
1146 2 0 7.94753 4.2521 10.0138 
386 2 0 1.7802 9.67287 9.77476 
1293 3 -1 1.24267 10.4568 9.71922 
1292 3 -1 1.42941 8.97875 7.57809 
1371 3 -1 2.38839 7.93147 8.36442 
384 2 0 1.81968 8.96626 8.44195 
383 2 0 2.53075 8.72514 9.04286 
1270 3 -1 3.11527 7.68512 7.13066 
340 2 0 3.61896 8.39409 7.68759 
341 2 0 3.65285 8.97349 9.01731 
343 2 0 3.30058 8.64908 9.94466 
542 2 0 3.4023 7.84599 8.48406 
379 2 0 3.24636 9.46358 7.33211 
381 2 0 2.96972 9.02231 8.16514 
382 2 0 2.86722 9.74476 8.87126 
380 2 0 3.19371 10.258 8.02862 
344 2 0 3.16472 9.52487 10.0557 
385 2 0 2.07188 8.69367 9.88717 
1290 3 -1 2.83579 11.0621 8.52436 
1291 3 -1 2.88083 10.3958 9.57458 
337 2 0 4.20283 9.17597 7.00868 
338 2 0 4.05027 10.1692 7.2763 
775 2 0 6.26029 8.80456 6.96814 
1568 3 -1 6.28222 7.69284 7.18867 
1184 2 0 7.14504 11.114 9.61652 
543 2 0 4.1229 7.67687 9.93755 
339 2 0 4.05015 9.15216 8.04327 
541 2 0 4.16349 8.0342 9.06306 
537 2 0 5.1409 8.68669 7.47621 
539 2 0 4.70089 8.4153 8.25006 
342 2 0 4.20202 9.63595 9.52767 
538 2 0 5.25737 7.76725 7.2679 
540 2 0 5.20634 8.77596 8.959 
777 2 0 6.19411 8.58564 7.94536 
778 2 0 5.89867 9.4203 8.29182 
779 2 0 6.55024 8.42462 8.80739 
780 2 0 6.94431 7.80442 8.24916 
1470 3 -1 5.03228 7.55291 8.54735 
781 2 0 6.80637 8.25811 9.67067 
984 2 0 7.29876 9.22604 10.0604 
1271 3 -1 4.93815 10.2297 9.93411 
1370 3 -1 5.83076 8.52654 9.6631 
1389 3 -1 4.94839 9.61306 7.56067 
1592 3 -1 6.84755 10.0825 10.0092 
1269 3 -1 4.17474 11.0555 7.66452 
582 2 0 5.51356 11.2217 10.1515 
578 2 0 5.01753 10.5464 7.73971 
1489 3 -1 5.69962 10.2683 8.69132 
980 2 0 7.45207 8.71474 8.17181 
1590 3 -1 6.86048 9.43525 8.10165 
581 2 0 4.6272 11.1902 9.83223 
1511 3 -1 6.21293 11.0591 8.27241 
1613 3 -1 8.9235 11.0266 9.50442 
1693 3 -1 9.92631 9.6523 10.367 
983 2 0 7.7689 8.35221 9.99389 
977 2 0 8.18461 8.19109 7.22848 
979 2 0 8.05747 7.98836 8.16303 
981 2 0 7.70171 8.27854 9.03176 
1691 3 -1 8.30532 9.09401 8.37595 
978 2 0 7.82186 9.05649 7.23226 
982 2 0 8.6403 8.21511 9.18674 
1589 3 -1 7.51285 9.90962 7.56086 
1182 2 0 8.29657 10.12 8.57215 
1183 2 0 8.01222 10.6609 9.74094 
1591 3 -1 9.51247 8.11075 8.807 
1181 2 0 7.93499 10.9077 8.80835 
1179 2 0 7.92977 11.2016 7.945 
1432 3 -1 3.16104 0.0282928 9.28265 
223 2 0 2.05257 12.2613 10.4781 
1212 3 -1 0.217274 11.9622 10.2349 
224 2 0 1.21286 11.9509 10.2729 
415 2 0 3.1148 13.8792 7.18063 
458 2 0 2.12259 14.7943 7.86045 
462 2 0 0.905235 14.5596 9.87198 
1329 3 -1 2.50254 14.1352 8.33322 
1331 3 -1 0.392845 13.725 9.92587 
1211 3 -1 3.3978 11.2964 9.41735 
1209 3 -1 0.606551 13.8203 7.79646 
1210 3 -1 1.52489 11.3669 8.14523 
416 2 0 2.23078 14.1484 7.08771 
1310 3 -1 2.2598 14.5018 9.86099 
218 2 0 1.58319 13.7378 7.94576 
220 2 0 1.85034 12.258 8.37378 
419 2 0 3.11439 13.0552 8.97121 
420 2 0 2.64879 13.7639 9.32438 
217 2 0 2.34749 13.2576 7.74593 
219 2 0 2.08974 13.1525 8.67458 
221 2 0 2.04658 12.7898 9.54009 
421 2 0 3.16624 12.9479 9.89238 
1390 3 -1 3.2966 12.1543 8.42577 
222 2 0 2.79986 12.0883 9.55909 
417 2 0 3.23574 13.4165 8.1201 
621 2 0 3.6454 13.9813 9.65474 
619 2 0 3.61359 14.1958 8.66884 
617 2 0 3.57582 14.6229 7.8463 
824 2 0 6.87561 13.1305 10.3549 
664 2 0 3.85579 14.9594 9.90671 
1180 2 0 7.0736 11.435 7.66524 
1411 3 -1 5.12362 13.125 10.3422 
817 2 0 6.31298 13.6216 7.29047 
658 2 0 6.1445 14.7801 7.96939 
662 2 0 5.21867 14.2287 9.52716 
1690 3 -1 6.27802 11.5917 7.19212 
1409 3 -1 5.43801 14.2452 7.26859 
1429 3 -1 7.07288 14.416 7.87586 
620 2 0 4.58209 14.0382 8.60966 
1410 3 -1 5.57636 13.9428 8.45413 
862 2 0 6.20424 14.6157 9.02505 
1431 3 -1 5.15049 13.2614 9.18034 
1531 3 -1 6.88342 13.9493 8.94803 
622 2 0 4.39765 13.4911 9.77827 
580 2 0 4.12683 11.6293 8.62901 
618 2 0 4.54505 14.4199 7.57516 
418 2 0 4.08155 13.0343 7.82039 
1309 3 -1 4.7642 12.4354 8.04568 
422 2 0 3.90455 12.3719 9.72895 
575 2 0 5.05998 11.7243 7.0393 
577 2 0 5.30364 11.4141 7.96801 
579 2 0 4.99544 11.0844 8.93152 
1311 3 -1 4.79882 12.1001 9.37189 
823 2 0 6.20023 12.6538 9.9247 
819 2 0 6.25876 13.2816 8.10652 
820 2 0 6.95988 12.5438 8.09354 
821 2 0 6.30084 12.7916 8.96824 
822 2 0 6.03446 11.886 8.67208 
818 2 0 7.26771 13.8277 7.12146 
1692 3 -1 6.28084 11.6659 9.64219 
1024 2 0 8.5514 13.4702 9.88728 
1064 2 0 7.75937 14.8506 9.90738 
1061 2 0 8.95492 14.99 9.23241 
1611 3 -1 9.50181 13.1294 9.50347 
1063 2 0 8.66565 14.7196 10.0924 
1612 3 -1 9.37501 14.0147 10.0237 
1026 2 0 8.28777 11.6593 10.0797 
1177 2 0 8.07415 11.7006 7.15134 
1178 2 0 8.71749 12.1277 7.66314 
1022 2 0 8.79373 13.2419 8.83891 
1689 3 -1 9.59207 12.4762 7.84098 
1021 2 0 7.79278 13.2383 8.72364 
1610 3 -1 9.13244 14.1687 8.45544 
1020 2 0 8.31426 13.8949 8.02905 
1019 2 0 7.73635 13.1894 7.75672 
1510 3 -1 7.83052 12.1282 8.28006 