ITEM: TIMESTEP
2000
ITEM: NUMBER OF ATOMS
1500
ITEM: BOX BOUNDS pp pp ff
0 15
0 15
0 42
ITEM: ATOMS id type q xu yu zu 
203 2 0 0.511715 -0.144963 1.83907 
204 2 0 0.891464 0.746764 1.90732 
205 2 0 1.28642 -0.140067 2.36017 
241 2 0 0.240927 3.05656 1.01483 
242 2 0 0.299997 2.15444 1.24245 
243 2 0 0.296178 3.7928 1.58959 
245 2 0 0.878271 3.56809 2.40057 
246 2 0 1.46131 2.80931 2.36561 
401 2 0 3.0659 -0.00320862 1.02275 
403 2 0 2.93466 -0.0423215 2.02259 
404 2 0 3.18646 0.842127 1.79366 
405 2 0 3.61774 0.0665411 2.7235 
441 2 0 3.072 2.90286 0.998653 
1202 3 -1 1.21955 0.399627 1.11842 
1221 3 -1 0.673993 1.84584 2.11218 
207 2 0 1.97147 0.0101065 3.01994 
208 2 0 2.32047 0.717498 2.51007 
407 2 0 3.68069 0.957605 3.07927 
447 2 0 3.70382 2.91214 2.80071 
1204 3 -1 2.12502 1.60488 2.1645 
1223 3 -1 1.23165 2.78316 1.41465 
448 2 0 3.02213 3.61711 3.03242 
201 2 0 0.0933212 -0.196946 1.00587 
210 2 0 2.60318 1.44899 3.14989 
409 2 0 3.61195 1.91428 2.83995 
1205 3 -1 2.12629 2.31326 3.1121 
443 2 0 3.58136 3.75622 1.08471 
406 2 0 4.16397 0.251036 1.99006 
442 2 0 4.01081 2.82006 1.05877 
445 2 0 3.45385 3.37344 1.98367 
1302 3 -1 4.03521 1.20691 1.79689 
603 2 0 6.43966 0.588355 1.81357 
604 2 0 6.73091 1.35278 1.32492 
605 2 0 6.61743 1.21455 2.4853 
606 2 0 7.48019 1.40957 2.13305 
641 2 0 5.74518 3.18929 0.996026 
642 2 0 6.30439 2.56029 1.48089 
1303 3 -1 5.09673 0.57923 1.90103 
1321 3 -1 4.83865 2.362 1.06168 
1421 3 -1 7.15432 2.94938 1.77384 
408 2 0 4.6144 0.68429 2.91474 
1304 3 -1 4.8315 -0.237784 2.76943 
647 2 0 5.66298 3.40987 2.47966 
1404 3 -1 5.4884 1.3314 2.50904 
607 2 0 6.42319 0.472514 3.03507 
608 2 0 5.50729 0.779597 3.2904 
1325 3 -1 5.33661 2.38657 2.37173 
601 2 0 5.94015 0.134111 1.0669 
410 2 0 4.55442 1.94226 3.01353 
450 2 0 4.83826 2.89331 3.10145 
649 2 0 6.54409 3.17967 2.77705 
650 2 0 6.60723 2.27766 2.47213 
1402 3 -1 7.70995 1.21145 1.10166 
1403 3 -1 8.40555 1.51732 2.636 
804 2 0 8.36099 0.540974 2.11004 
806 2 0 9.06952 0.290106 2.83307 
841 2 0 8.91527 3.16221 0.960667 
843 2 0 9.27876 2.25277 1.12401 
844 2 0 9.75489 3.08031 1.46894 
845 2 0 9.2709 2.30974 2.12257 
846 2 0 9.79312 3.02073 2.51958 
1502 3 -1 8.70675 1.32007 1.61653 
1503 3 -1 9.65329 -0.484936 2.67094 
1523 3 -1 10.301 3.85064 2.37713 
1004 2 0 10.8053 1.15151 1.05364 
1006 2 0 10.8373 1.4551 2.21758 
1045 2 0 10.7665 3.04043 1.96714 
1602 3 -1 9.89361 1.30157 1.36108 
1603 3 -1 10.3175 2.20232 2.43339 
1522 3 -1 9.03312 3.48321 1.92504 
847 2 0 9.39992 2.16372 3.0672 
848 2 0 8.62723 2.72708 3.03682 
1008 2 0 10.1824 0.577179 2.62906 
1047 2 0 10.8566 3.05067 2.9355 
1043 2 0 11.1902 3.08604 1.11747 
1524 3 -1 8.0708 3.35193 2.48474 
1425 3 -1 7.55882 2.37208 2.59769 
807 2 0 7.7698 0.149895 3.42742 
850 2 0 9.69121 3.461 3.4082 
1604 3 -1 9.44045 1.16853 2.37188 
1625 3 -1 11.2839 2.1155 3.08452 
1005 2 0 11.166 0.669147 1.79676 
1003 2 0 11.7386 0.961612 1.07995 
1041 2 0 12.0879 2.84425 0.949431 
1623 3 -1 12.368 2.26849 2.35865 
1042 2 0 12.1709 1.91492 1.16107 
1046 2 0 11.4499 2.43565 2.12181 
1621 3 -1 12.5702 1.40762 1.88355 
1050 2 0 12.1044 2.5412 3.4352 
1048 2 0 11.7387 3.31964 2.66 
247 2 0 1.72459 3.96819 2.64163 
244 2 0 1.27767 3.93118 1.31856 
444 2 0 2.95905 4.4339 1.10398 
281 2 0 -0.0438846 5.79464 1.03102 
282 2 0 0.118852 4.86826 1.17283 
284 2 0 0.186092 7.31183 1.35801 
285 2 0 -0.298621 6.59618 2.34304 
286 2 0 0.504543 6.29219 1.93471 
481 2 0 3.05905 5.95503 0.948677 
483 2 0 2.29877 6.00585 1.49947 
484 2 0 2.51319 6.8895 1.20822 
485 2 0 2.75888 6.26941 2.28018 
1222 3 -1 0.989917 4.47612 2.00568 
1241 3 -1 0.977706 5.31681 1.35332 
1243 3 -1 1.21237 6.60707 2.45299 
248 2 0 1.12787 4.58607 3.01959 
1324 3 -1 3.08501 4.59938 3.05614 
486 2 0 3.53218 5.86388 1.9937 
1322 3 -1 3.22442 4.69924 1.96302 
1342 3 -1 3.32752 6.93569 1.68209 
287 2 0 0.309325 6.32626 3.09303 
288 2 0 0.650572 7.22078 3.26869 
290 2 0 1.99164 6.24619 3.03864 
487 2 0 2.97206 6.48309 3.24056 
1224 3 -1 1.84799 5.09962 3.19213 
1244 3 -1 0.566834 7.43831 2.32038 
643 2 0 6.62393 3.76684 1.0328 
645 2 0 6.1557 3.98545 1.86865 
446 2 0 4.12986 4.03755 2.16461 
644 2 0 6.45518 4.71695 1.05768 
646 2 0 7.08517 4.09112 2.01988 
1323 3 -1 4.91552 4.09939 2.72725 
482 2 0 3.95271 6.30864 1.09742 
681 2 0 6.19849 5.96219 1.01034 
682 2 0 6.82427 6.6952 1.01544 
683 2 0 5.67141 6.69867 1.12232 
684 2 0 4.7773 6.95412 1.06794 
685 2 0 5.26949 7.02673 1.9498 
686 2 0 5.9587 6.88897 2.67192 
1341 3 -1 4.43944 6.36801 1.93711 
1343 3 -1 4.01025 5.95891 2.82701 
1422 3 -1 5.56782 5.02504 1.2426 
1441 3 -1 6.54211 6.45415 1.87989 
687 2 0 4.66836 7.02625 2.70812 
449 2 0 4.20169 3.5537 3.22996 
648 2 0 6.16671 4.16737 2.91996 
1445 3 -1 6.50345 5.86025 2.83125 
1423 3 -1 7.31784 4.00827 2.92451 
842 2 0 9.17892 4.10354 1.13534 
1521 3 -1 8.6517 4.91067 1.31639 
881 2 0 8.99655 5.91574 0.999981 
882 2 0 9.62008 6.5799 1.06138 
883 2 0 9.12745 5.75389 1.91652 
884 2 0 8.12289 5.78442 1.73846 
885 2 0 9.35538 6.65092 2.06981 
886 2 0 8.5723 6.29557 2.54462 
1541 3 -1 10.0326 5.6804 1.11993 
1083 2 0 11.0877 6.40064 1.42662 
1085 2 0 10.265 6.20418 1.87834 
1086 2 0 10.3082 7.15946 2.02263 
887 2 0 9.32533 7.02689 2.93269 
1088 2 0 10.4583 7.13539 3.085 
1542 3 -1 7.57236 6.5083 1.74775 
1084 2 0 11.1398 7.29033 1.04461 
1641 3 -1 11.511 4.82569 1.89714 
1087 2 0 10.1817 6.25944 2.8029 
1561 3 -1 9.26423 7.76326 1.43414 
1543 3 -1 7.62356 6.45007 2.84578 
1645 3 -1 10.8262 5.1714 3.09154 
283 2 0 -0.433204 6.58127 1.40677 
1044 2 0 11.4624 3.86822 1.68033 
1622 3 -1 12.145 4.30458 1.12759 
1643 3 -1 11.1134 6.8467 2.2867 
1081 2 0 11.9074 6.21748 0.97535 
1082 2 0 12.0798 5.28711 1.26831 
1624 3 -1 12.0659 3.9058 3.4116 
1665 3 -1 11.9711 6.87891 3.18169 
1242 3 -1 0.755982 8.05879 1.34718 
488 2 0 2.76529 7.34412 2.96579 
321 2 0 0.164022 9.00979 0.966279 
323 2 0 0.0528751 9.55487 1.75673 
325 2 0 0.556938 9.53132 2.53762 
326 2 0 1.38155 9.26116 2.08814 
521 2 0 2.7706 9.39649 0.961418 
523 2 0 2.07393 9.91413 1.28385 
524 2 0 2.60436 10.7378 1.2016 
1261 3 -1 -0.0477606 8.56529 2.06322 
1263 3 -1 2.16735 8.88578 1.68519 
327 2 0 0.466096 8.58001 2.98588 
525 2 0 2.25078 10.0918 2.18535 
363 2 0 0.00528601 11.8569 1.95158 
527 2 0 2.41264 9.46702 2.92397 
526 2 0 3.10811 10.5669 2.17033 
1362 3 -1 1.62219 10.9451 1.15874 
324 2 0 0.206348 10.278 1.1357 
1344 3 -1 3.26297 8.16235 3.10264 
529 2 0 2.64 9.27225 3.83398 
1265 3 -1 1.57406 9.04673 3.18853 
370 2 0 0.289883 9.86505 3.48154 
528 2 0 1.7384 10.0652 3.22942 
1443 3 -1 6.12175 7.68984 2.24412 
1442 3 -1 4.06993 7.58619 1.22643 
522 2 0 3.42316 8.76911 1.20344 
721 2 0 6.03966 9.02603 1.00213 
722 2 0 6.95367 8.68453 1.14088 
723 2 0 5.37832 9.76306 1.035 
724 2 0 6.11288 10.3258 1.25295 
725 2 0 5.05713 10.2515 1.76138 
726 2 0 5.04236 9.2986 1.98523 
1361 3 -1 4.39705 8.64935 1.19049 
1363 3 -1 3.9681 10.4665 2.08733 
1461 3 -1 6.52845 8.6599 1.99083 
1462 3 -1 5.5513 11.0779 1.51743 
1463 3 -1 5.3358 8.43155 1.87759 
688 2 0 4.25571 7.71089 2.21204 
1444 3 -1 4.19823 8.70221 2.34724 
727 2 0 4.98891 10.3371 2.74199 
728 2 0 5.77618 9.72902 2.78075 
1564 3 -1 6.9794 9.80165 1.55446 
927 2 0 7.68311 8.40773 2.40478 
928 2 0 7.29783 9.30508 2.34783 
1381 3 -1 4.40801 10.9125 1.13312 
490 2 0 3.93176 7.31608 3.6221 
729 2 0 4.506 9.56932 3.08418 
730 2 0 5.09943 8.8387 2.90053 
1464 3 -1 6.6497 10.0895 2.75698 
1465 3 -1 6.0046 8.60804 2.87163 
971 2 0 6.91401 11.4246 3.67488 
929 2 0 7.05294 8.55396 3.08236 
888 2 0 9.57564 7.79273 2.47019 
921 2 0 9.08344 9.15769 1.01557 
922 2 0 9.82917 8.52231 1.26073 
923 2 0 8.95443 9.62414 1.89524 
924 2 0 8.50511 10.3257 1.49962 
925 2 0 8.22363 9.07945 2.03029 
926 2 0 8.48247 9.07941 2.90609 
1562 3 -1 7.5952 10.435 1.10213 
1563 3 -1 9.20989 9.73226 2.87168 
966 2 0 9.50848 10.6161 2.32599 
1581 3 -1 9.55972 10.1364 1.29372 
1583 3 -1 10.3343 10.8495 1.85011 
1544 3 -1 8.70107 8.15681 2.4789 
1642 3 -1 10.7336 7.95032 1.54775 
1125 2 0 11.1493 8.98416 2.14048 
1123 2 0 11.0763 8.84668 1.17088 
1124 2 0 10.8445 9.75021 1.39911 
1585 3 -1 8.97435 10.8658 3.25195 
1168 2 0 11.0796 9.99407 2.71351 
1684 3 -1 10.2202 9.86955 3.05656 
969 2 0 7.31762 11.0464 2.85481 
322 2 0 -0.562469 8.39249 1.27651 
1127 2 0 11.367 8.83758 3.05012 
1262 3 -1 -0.763575 10.3476 1.03078 
1121 2 0 11.9561 9.05477 1.01389 
1122 2 0 12.4584 8.41813 1.47047 
1126 2 0 11.7463 8.22907 2.21646 
1661 3 -1 12.9369 9.18976 1.72502 
1662 3 -1 11.2289 10.7297 1.41557 
365 2 0 -0.0782141 10.8671 2.04896 
366 2 0 -1.02997 11.0167 1.84704 
1165 2 0 12.0023 10.7293 2.35275 
1166 2 0 12.8084 10.3005 2.04833 
1683 3 -1 12.0139 9.88654 1.65485 
367 2 0 -0.497974 10.3047 2.7415 
1167 2 0 11.9912 9.95338 2.86486 
1663 3 -1 12.175 9.02904 2.48049 
368 2 0 -0.102523 11.0234 3.28237 
1130 2 0 11.372 7.60482 3.36416 
1169 2 0 12.2652 9.33604 3.57495 
1170 2 0 13.0808 9.07213 3.02704 
1685 3 -1 13.8537 8.63407 3.42092 
206 2 0 1.9527 -0.0634362 1.64013 
1201 3 -1 0.555251 -1.18965 2.19127 
1203 3 -1 1.30829 -0.67715 1.35536 
402 2 0 3.00108 -0.953057 1.31948 
565 2 0 3.21919 12.0296 2.09946 
567 2 0 3.24432 12.0923 3.10598 
202 2 0 0.190325 -1.08798 1.28019 
362 2 0 0.293625 12.8035 1.43668 
561 2 0 2.86071 11.909 1.00136 
564 2 0 2.27643 12.5274 1.74389 
568 2 0 2.30592 11.9684 2.81309 
1281 3 -1 0.957226 12.7895 2.12758 
563 2 0 2.43324 11.5665 1.78536 
562 2 0 3.49452 11.2271 1.42215 
566 2 0 3.76572 12.8259 2.13337 
1382 3 -1 2.86563 13.2641 2.13986 
361 2 0 -0.149008 12.0466 1.00061 
1384 3 -1 1.56712 12.4757 3.11491 
766 2 0 6.44401 12.5056 1.92494 
1483 3 -1 6.55899 11.8864 2.62391 
767 2 0 5.59121 13.5778 2.91688 
1401 3 -1 6.55119 -0.754235 2.37603 
765 2 0 5.78097 13.1762 2.01341 
602 2 0 5.8339 -0.202736 1.96168 
1301 3 -1 3.68466 -0.783334 2.00254 
761 2 0 5.9292 11.9945 0.983442 
762 2 0 6.88391 11.7698 1.2858 
763 2 0 5.65746 12.9506 1.09166 
764 2 0 6.64469 13.1853 1.17941 
1383 3 -1 4.49169 12.3551 2.56734 
1482 3 -1 6.45185 14.1447 1.19057 
1481 3 -1 7.52051 12.4791 1.18155 
1582 3 -1 8.2251 13.2951 1.39733 
769 2 0 5.59641 12.649 3.24134 
768 2 0 6.40554 13.7943 3.33966 
972 2 0 7.5472 12.1207 3.45721 
801 2 0 8.79281 -0.0843716 0.978049 
802 2 0 8.98061 -1.05662 1.03665 
803 2 0 8.4217 -0.396911 1.91679 
805 2 0 8.35261 -0.325032 2.83182 
1501 3 -1 9.02596 -1.22433 1.95917 
1601 3 -1 10.9161 -0.776069 1.97063 
1007 2 0 11.0389 0.115467 2.58676 
962 2 0 9.25413 11.1105 1.32103 
967 2 0 8.18356 11.3542 2.39799 
965 2 0 9.08857 11.4965 2.19938 
961 2 0 9.26174 12.0148 0.959112 
963 2 0 9.48768 12.2691 1.81018 
964 2 0 8.51148 12.4887 1.79645 
968 2 0 8.54149 12.0164 2.99618 
1002 2 0 11.6992 -0.836577 1.49107 
1009 2 0 10.8867 -0.236725 3.41381 
1001 2 0 11.9031 0.00596455 1.02453 
1163 2 0 11.6753 11.52 1.88452 
364 2 0 -0.194917 12.5653 2.5377 
1282 3 -1 -0.678081 11.8554 2.80656 
1161 2 0 11.9039 11.783 0.947071 
1162 2 0 12.6794 12.1737 1.40232 
1164 2 0 11.9715 12.3145 2.35652 
1681 3 -1 12.6283 11.2325 1.64322 
1682 3 -1 11.6932 13.1658 2.81665 
1283 3 -1 -1.68132 11.2103 2.51079 
209 2 0 2.30274 0.655183 3.68225 
211 2 0 1.99083 1.35155 4.37896 
212 2 0 1.23066 1.81101 4.03713 
250 2 0 2.40275 3.39578 3.95432 
411 2 0 3.72602 2.02713 3.80135 
1206 3 -1 1.13522 2.64892 4.5877 
1225 3 -1 3.28412 3.12414 3.94503 
213 2 0 1.8877 1.94223 5.1111 
214 2 0 2.3958 1.30051 5.62143 
215 2 0 1.50058 2.60602 5.69276 
216 2 0 2.22302 3.2244 5.46457 
1207 3 -1 3.22831 0.761639 5.5748 
217 2 0 1.87491 2.88413 6.58713 
218 2 0 2.68957 2.5744 6.29056 
1208 3 -1 2.61974 3.52904 6.30583 
413 2 0 3.82326 1.8573 4.7134 
1308 3 -1 3.80656 3.34389 4.96645 
412 2 0 4.32651 2.72678 4.00981 
1306 3 -1 5.30911 2.82347 4.07704 
610 2 0 7.13718 0.618053 4.14789 
612 2 0 6.17784 0.933558 4.83577 
651 2 0 6.73014 3.60814 3.61778 
1305 3 -1 4.49378 1.3357 3.75627 
1406 3 -1 6.89641 1.52667 4.98545 
414 2 0 4.79521 2.02592 4.51518 
415 2 0 4.13395 2.24346 5.50408 
416 2 0 4.62666 2.97323 5.14341 
653 2 0 6.49311 3.14521 4.44541 
654 2 0 7.25914 2.65577 4.25041 
1307 3 -1 5.77355 1.98863 4.72909 
1427 3 -1 6.62885 2.47625 3.59319 
1506 3 -1 7.60065 1.41892 5.60424 
655 2 0 6.66869 3.5423 5.26095 
613 2 0 7.1531 0.171777 5.14146 
615 2 0 6.85044 0.343692 6.01605 
1209 3 -1 3.24419 1.84335 6.01863 
417 2 0 5.05646 1.96954 5.50619 
418 2 0 5.52868 2.85805 5.74554 
419 2 0 4.81813 1.46518 6.24063 
420 2 0 5.58327 2.02487 6.41495 
657 2 0 6.55103 3.01771 6.05594 
659 2 0 6.79989 3.15267 7.00377 
1309 3 -1 5.33057 3.77641 5.86714 
462 2 0 3.52915 3.12969 6.95837 
422 2 0 4.55471 0.316761 6.91313 
1410 3 -1 5.21688 0.649908 5.73189 
1331 3 -1 4.10778 2.47322 6.61643 
858 2 0 7.51897 3.43226 5.9363 
1529 3 -1 7.46346 2.57313 5.43077 
1311 3 -1 4.15024 -0.116726 6.11143 
1405 3 -1 7.48408 1.52168 4.07392 
808 2 0 8.32986 0.95947 3.6206 
809 2 0 8.1679 -0.405654 4.11282 
810 2 0 9.01928 -0.398463 3.72746 
811 2 0 8.35679 0.00647652 4.90734 
812 2 0 7.91408 0.856291 4.84361 
849 2 0 9.35582 2.66273 3.92517 
851 2 0 8.50716 3.03925 4.15604 
1504 3 -1 8.63764 1.89853 3.69999 
1012 2 0 9.9116 0.797707 4.0254 
1049 2 0 11.253 2.87266 3.77895 
1051 2 0 11.0038 2.22283 4.48681 
1605 3 -1 11.4772 1.12135 4.65231 
1606 3 -1 10.1141 1.56987 4.48635 
814 2 0 7.87116 0.360784 5.96151 
853 2 0 7.86488 3.3184 4.83096 
1507 3 -1 8.54259 0.998671 6.15607 
1014 2 0 11.1699 0.00328364 5.05947 
1053 2 0 10.4158 2.37007 5.22601 
1056 2 0 9.43964 3.03613 6.03982 
1010 2 0 11.0279 0.51345 4.01445 
1054 2 0 10.991 1.91188 5.79227 
1627 3 -1 10.5426 1.40524 6.53299 
852 2 0 8.89284 3.88476 4.06694 
854 2 0 8.77664 3.2889 5.07648 
1055 2 0 10.1446 2.42742 6.23732 
1057 2 0 9.94346 2.69123 7.14278 
1607 3 -1 11.1261 0.486783 5.89551 
1058 2 0 10.3265 3.38464 6.61053 
1052 2 0 11.8837 2.51227 4.90265 
1626 3 -1 12.1657 3.27406 5.52087 
249 2 0 2.00175 4.16509 3.53385 
251 2 0 1.53777 4.2259 4.42393 
252 2 0 1.64716 5.18914 4.27085 
289 2 0 1.18815 6.3612 3.57 
291 2 0 1.53643 6.20675 4.4385 
292 2 0 1.23589 7.09306 4.427 
492 2 0 3.1334 7.19263 5.39641 
1226 3 -1 2.19896 5.44863 4.96921 
1245 3 -1 2.30497 5.97176 3.88429 
1346 3 -1 2.28548 7.47437 5.78501 
253 2 0 1.83168 4.50798 5.31777 
254 2 0 2.58241 4.41498 4.6817 
256 2 0 1.73285 5.16262 6.32705 
1227 3 -1 3.08525 4.03498 5.46416 
293 2 0 1.99583 6.69684 5.11373 
294 2 0 2.7948 6.39331 4.73191 
295 2 0 2.6117 6.43622 5.82142 
1228 3 -1 0.881217 4.65359 6.07094 
255 2 0 2.50257 4.95277 5.7655 
489 2 0 3.0473 7.08642 3.94124 
1246 3 -1 2.01033 7.00667 3.88549 
296 2 0 1.73383 6.43092 6.14324 
257 2 0 2.53482 4.63417 6.7017 
297 2 0 2.83467 5.84474 6.50894 
1248 3 -1 0.793624 6.12214 6.28975 
496 2 0 3.68766 6.68865 6.0762 
652 2 0 7.00951 4.53987 3.75117 
453 2 0 4.70423 3.94976 4.99456 
455 2 0 4.14205 4.08004 5.75444 
451 2 0 4.44632 3.76084 4.14698 
855 2 0 7.36974 4.17368 4.75129 
1247 3 -1 3.78948 6.32411 4.90877 
1424 3 -1 5.57506 4.74117 3.45246 
452 2 0 4.61555 4.64743 3.85199 
491 2 0 3.69754 7.24795 4.6124 
1326 3 -1 4.34798 5.35846 4.49789 
689 2 0 5.0521 6.49558 3.42457 
691 2 0 5.65781 7.09185 3.89099 
1426 3 -1 7.65971 4.92772 3.21065 
454 2 0 5.10632 4.79167 4.86692 
456 2 0 4.4422 4.92968 5.50453 
1327 3 -1 5.59247 4.18073 4.34432 
493 2 0 4.49377 7.20795 5.15157 
693 2 0 5.93057 6.59512 4.66865 
695 2 0 5.7778 6.54994 5.56044 
1447 3 -1 7.27447 7.34092 5.01662 
694 2 0 6.655 7.15389 4.3687 
1547 3 -1 7.62004 5.12298 4.35511 
690 2 0 5.73517 5.78406 3.45586 
1546 3 -1 6.68506 6.70212 3.49423 
656 2 0 6.1148 4.27141 5.37889 
457 2 0 3.70369 4.82939 6.12391 
495 2 0 4.67621 6.75215 5.98351 
458 2 0 4.60288 5.09309 6.4774 
658 2 0 6.4029 3.89507 6.26445 
1429 3 -1 6.41365 4.81402 6.45892 
1328 3 -1 4.14808 5.7651 5.80104 
697 2 0 5.67837 6.90492 6.48276 
698 2 0 6.59313 6.94543 6.11869 
1428 3 -1 5.69489 5.04942 5.78239 
859 2 0 7.34201 4.19067 6.61827 
857 2 0 7.32765 4.36346 5.65945 
696 2 0 5.54168 7.42055 5.31519 
1449 3 -1 6.61361 7.81016 5.69601 
1525 3 -1 9.86366 4.35806 3.22259 
890 2 0 9.52839 7.12203 3.95797 
891 2 0 8.40786 6.71068 3.52687 
1526 3 -1 7.99548 3.99234 3.82273 
1545 3 -1 9.54809 6.45261 4.67752 
1089 2 0 10.3157 6.37543 3.7226 
1091 2 0 10.737 7.07159 4.28467 
856 2 0 8.29705 4.44424 4.78957 
1527 3 -1 9.17642 4.12856 5.25458 
893 2 0 8.19012 6.74894 4.46391 
894 2 0 7.57035 6.0676 4.35971 
895 2 0 8.05922 6.50929 5.3633 
896 2 0 8.68017 7.19718 5.44894 
1093 2 0 10.7377 6.16552 4.80594 
1095 2 0 10.9916 5.62881 5.53757 
1647 3 -1 10.6611 5.06516 4.89219 
1628 3 -1 9.39271 3.9235 6.36333 
892 2 0 7.55135 7.11002 3.72594 
897 2 0 7.72021 6.93771 6.19343 
1528 3 -1 8.38222 4.61203 5.78648 
1549 3 -1 9.27426 6.76807 6.17815 
1097 2 0 10.4111 5.84609 6.30724 
1098 2 0 11.1951 5.90483 6.84605 
1648 3 -1 11.1201 7.18195 6.31396 
1530 3 -1 7.30846 5.99825 6.40833 
1092 2 0 11.627 6.68156 4.32425 
1096 2 0 11.551 6.40019 5.83789 
1090 2 0 11.1518 6.03278 3.417 
1094 2 0 11.3246 5.53796 4.45671 
1646 3 -1 12.2854 6.0869 4.03806 
1133 2 0 11.3644 7.16649 5.22361 
1134 2 0 12.0379 7.5008 5.77343 
1667 3 -1 12.772 6.86561 5.51529 
1649 3 -1 11.9579 6.481 6.82983 
328 2 0 -0.13393 8.24465 3.62607 
329 2 0 0.952119 8.16365 3.76448 
330 2 0 0.938408 9.11568 3.85547 
331 2 0 1.44645 8.38449 4.52813 
332 2 0 0.535707 8.36826 4.80404 
530 2 0 3.04862 10.0983 4.08062 
531 2 0 1.83926 9.5168 4.35828 
532 2 0 2.11206 10.4148 4.26732 
1266 3 -1 0.22742 7.98235 5.68923 
1364 3 -1 1.19838 10.1995 3.91383 
1366 3 -1 1.57483 11.1392 4.45501 
569 2 0 3.22212 11.9917 4.04083 
571 2 0 2.96487 11.2229 4.44085 
1285 3 -1 -0.0926038 10.2501 4.2459 
333 2 0 1.41225 8.04621 5.46326 
334 2 0 0.859783 8.81088 5.67832 
335 2 0 1.36117 8.10134 6.4374 
336 2 0 0.731958 8.78527 6.70126 
535 2 0 2.52623 8.52688 5.60766 
1267 3 -1 1.56373 9.1488 6.26062 
374 2 0 0.110579 10.168 5.46455 
1287 3 -1 0.797037 10.6136 4.89228 
533 2 0 2.40427 8.76473 4.69772 
573 2 0 3.41248 10.9853 5.25743 
1347 3 -1 3.48894 8.26461 5.16339 
534 2 0 3.31212 9.07345 4.70799 
572 2 0 2.30067 11.3763 5.13447 
537 2 0 2.48073 8.26112 6.48993 
538 2 0 3.39415 8.37313 6.23774 
1268 3 -1 0.277008 9.50648 6.24122 
1368 3 -1 2.54413 9.57945 6.35736 
536 2 0 3.13353 9.21675 5.71115 
576 2 0 2.78039 10.7982 6.44826 
494 2 0 4.07355 7.76803 5.76936 
692 2 0 4.86486 7.48036 4.25294 
1345 3 -1 4.34002 8.12291 3.21183 
1446 3 -1 5.05678 8.21876 4.84277 
731 2 0 4.5814 9.74795 4.06576 
732 2 0 5.42843 9.8605 3.70744 
1365 3 -1 3.89196 10.3842 3.66661 
1466 3 -1 6.16786 10.2181 4.30806 
733 2 0 5.06847 9.30832 4.70298 
734 2 0 5.91857 9.17527 4.31256 
735 2 0 5.56276 8.8465 5.41899 
736 2 0 6.18443 9.55273 5.21051 
738 2 0 5.8948 9.6332 6.49302 
1467 3 -1 5.33085 8.61612 3.84156 
1468 3 -1 6.87003 10.1557 5.13421 
575 2 0 3.3721 10.2966 5.94565 
773 2 0 5.8224 11.1526 4.40068 
775 2 0 5.39616 10.8339 5.22659 
973 2 0 7.03392 10.9534 4.47989 
975 2 0 7.08598 11.1842 5.38235 
1367 3 -1 3.65592 9.94909 4.91751 
1448 3 -1 5.08376 7.73897 6.07627 
737 2 0 5.41336 8.81561 6.40755 
1369 3 -1 4.3289 8.67198 6.37625 
1469 3 -1 6.63624 9.08453 6.06551 
777 2 0 5.39196 10.932 6.18809 
1568 3 -1 7.35417 9.9434 6.24841 
977 2 0 7.22887 11.2242 6.35296 
1644 3 -1 9.97508 7.81574 3.422 
889 2 0 8.8692 7.65554 3.47012 
930 2 0 7.78418 8.08965 3.41782 
931 2 0 7.57534 9.08386 3.658 
932 2 0 8.51195 8.91634 3.86502 
1565 3 -1 8.21901 7.77858 4.2326 
1566 3 -1 8.46763 9.86263 3.80543 
1132 2 0 10.784 8.32944 4.54279 
1666 3 -1 10.5602 9.29682 4.81934 
1548 3 -1 8.03636 7.91906 5.42011 
933 2 0 7.61449 9.62116 4.49722 
934 2 0 8.10672 8.87833 4.75498 
935 2 0 7.95905 9.68253 5.37583 
936 2 0 7.96166 10.5576 5.77927 
1567 3 -1 8.867 8.29315 4.88957 
1135 2 0 10.8147 7.88654 5.53181 
970 2 0 8.04952 11.1694 3.42978 
974 2 0 7.98826 10.992 4.38228 
1587 3 -1 8.93877 11.1459 4.38172 
898 2 0 8.54351 7.30744 6.48529 
1551 3 -1 9.12214 7.8313 7.19781 
937 2 0 8.27862 8.92629 5.90138 
938 2 0 8.61955 9.77134 6.24022 
940 2 0 7.73375 9.23734 6.83277 
1569 3 -1 9.26372 9.24623 5.64938 
1137 2 0 10.7561 8.53724 6.26011 
1140 2 0 10.2829 9.39336 7.10932 
1670 3 -1 9.5171 9.88847 6.82664 
979 2 0 7.77775 10.792 6.88347 
980 2 0 8.41256 11.4032 6.5595 
1128 2 0 11.2423 9.50833 3.68031 
1264 3 -1 -0.69676 8.2756 4.48993 
1129 2 0 11.6057 8.41993 3.85285 
1131 2 0 11.6466 7.87994 4.62467 
1664 3 -1 11.676 9.28515 4.51489 
1136 2 0 11.4682 8.62055 5.34378 
1668 3 -1 11.3456 9.29013 5.99128 
369 2 0 -0.650174 9.77254 3.51564 
371 2 0 -0.524907 9.25547 4.28052 
372 2 0 -0.975857 9.97631 4.72107 
1286 3 -1 -0.864358 10.8889 4.9509 
1171 2 0 12.8595 8.85879 4.11746 
1172 2 0 13.2884 9.76266 4.0423 
1686 3 -1 12.7222 10.438 3.66819 
1687 3 -1 13.3186 8.63477 5.9924 
373 2 0 -0.144424 9.27163 5.12359 
375 2 0 -0.65375 9.0408 5.93218 
376 2 0 -0.730619 9.86209 6.35633 
1173 2 0 12.6348 9.11277 5.03192 
1174 2 0 13.5355 8.96639 5.0987 
1175 2 0 12.4325 9.318 5.94744 
1284 3 -1 0.561427 11.2199 3.95416 
1176 2 0 13.1723 9.85066 5.6344 
1688 3 -1 13.1631 10.6736 5.24979 
1138 2 0 11.6404 8.18207 6.38291 
1669 3 -1 11.9423 7.5472 7.05935 
377 2 0 -0.775453 8.79609 6.84185 
1288 3 -1 -0.829156 10.7215 6.05407 
1177 2 0 12.0478 10.1545 5.82891 
1178 2 0 12.8463 10.6074 6.14574 
1179 2 0 11.5498 10.9466 6.01429 
1180 2 0 12.4015 11.2484 5.55775 
1386 3 -1 1.53523 11.1319 5.96387 
574 2 0 3.22328 11.9452 5.20137 
1388 3 -1 3.26561 11.499 6.1737 
609 2 0 6.70887 -0.0731437 3.75119 
570 2 0 3.99844 11.4739 3.96183 
770 2 0 6.49817 12.7534 3.5896 
771 2 0 5.89934 11.7909 3.62623 
1385 3 -1 4.12938 12.3856 3.61491 
774 2 0 6.38643 11.8684 4.6555 
611 2 0 6.27481 -0.00759022 4.63805 
1387 3 -1 4.07098 11.8147 4.85889 
772 2 0 5.20612 12.3 4.09868 
1484 3 -1 5.95415 13.9059 4.19806 
1485 3 -1 7.16352 12.4774 4.22301 
1486 3 -1 4.97769 12.7192 4.92524 
776 2 0 5.32428 11.7884 5.19688 
1487 3 -1 6.03534 12.7895 4.54668 
614 2 0 7.31756 -0.694756 4.85404 
1407 3 -1 7.4043 -1.1853 4.07252 
617 2 0 6.40623 -0.431595 5.62491 
618 2 0 7.13069 -0.984355 5.8185 
619 2 0 6.04651 -0.578404 6.50359 
620 2 0 5.20468 -0.211247 6.16208 
778 2 0 6.05568 11.536 5.8944 
1488 3 -1 5.84027 12.5352 5.61584 
1489 3 -1 6.49196 12.1631 6.40631 
1490 3 -1 4.99855 12.3349 6.07994 
1391 3 -1 4.54662 12.9823 7.1352 
616 2 0 7.25738 -0.237001 6.70277 
1505 3 -1 8.98628 -1.20019 3.22913 
1011 2 0 10.0162 -0.0510129 3.74741 
813 2 0 8.10523 -0.538542 5.67693 
1013 2 0 10.4003 -0.266189 4.60081 
1586 3 -1 8.29244 12.032 4.06988 
1584 3 -1 9.12637 12.7996 2.89238 
815 2 0 9.04344 -0.232388 5.57934 
1015 2 0 10.7343 -0.98852 5.13832 
1018 2 0 9.98025 -2.03468 4.85231 
976 2 0 7.53847 11.9259 4.97305 
1588 3 -1 7.9138 12.7819 4.95678 
816 2 0 9.11014 -0.156745 6.52943 
1016 2 0 10.6186 -0.38768 5.85486 
1608 3 -1 11.1539 -0.369089 6.60615 
1589 3 -1 8.43963 12.3337 5.96253 
1022 2 0 11.2445 -2.24769 6.56241 
1408 3 -1 7.90762 -0.930544 6.72948 
978 2 0 7.55753 12.139 6.21131 
1409 3 -1 7.72286 -1.6867 5.76162 
817 2 0 8.89871 -1.05829 6.04403 
818 2 0 8.77451 -1.7493 5.45449 
819 2 0 8.70293 -1.82094 6.64349 
1509 3 -1 8.92199 -2.13255 4.5583 
1017 2 0 9.95795 -1.32364 5.4794 
1019 2 0 9.91038 -2.07324 6.0487 
1590 3 -1 8.34654 12.2163 7.0011 
1510 3 -1 9.61578 -0.999484 6.88158 
822 2 0 9.45056 -3.40813 6.60923 
1511 3 -1 10.429 -3.53039 6.48899 
1609 3 -1 10.8545 -2.31938 4.50549 
1020 2 0 10.3328 -2.72251 5.50898 
1611 3 -1 11.6212 -1.33559 6.55584 
1610 3 -1 10.9294 -1.9531 5.66718 
1690 3 -1 12.6018 11.6554 4.72509 
219 2 0 1.90253 2.90939 7.57268 
220 2 0 1.03556 3.22211 7.41584 
221 2 0 2.1153 1.98171 7.36429 
222 2 0 3.0045 2.1192 7.13388 
224 2 0 2.87609 2.9453 8.14223 
223 2 0 2.50419 2.07021 8.29266 
263 2 0 1.74682 3.89483 9.14438 
226 2 0 3.0188 1.10027 7.89282 
1212 3 -1 2.57302 3.14239 9.03876 
225 2 0 3.13483 1.53902 8.77386 
227 2 0 2.62408 0.891221 9.21403 
1314 3 -1 3.02746 0.161434 8.60949 
265 2 0 1.43731 3.27297 9.8561 
229 2 0 2.36141 0.149533 9.71506 
228 2 0 2.55632 1.36733 10.0576 
230 2 0 3.15594 -0.0220625 10.277 
1211 3 -1 3.8683 1.6564 7.25111 
1310 3 -1 6.05413 1.5394 7.08707 
421 2 0 5.31522 0.854562 6.75659 
661 2 0 6.28742 2.45003 7.43405 
463 2 0 4.06937 3.33927 8.43616 
423 2 0 5.83856 0.586692 7.52046 
663 2 0 6.04588 2.18598 8.29754 
424 2 0 5.49445 1.25177 8.08437 
461 2 0 3.56895 3.71625 7.70245 
660 2 0 6.48155 3.96434 7.30603 
1330 3 -1 4.79585 3.80688 7.6601 
1431 3 -1 6.9912 1.60885 7.54567 
1333 3 -1 4.8224 2.3417 8.19982 
1312 3 -1 4.51847 1.02543 7.77716 
1213 3 -1 3.67399 0.332127 7.65659 
425 2 0 5.24573 -0.0530702 8.00187 
466 2 0 5.0293 2.75876 9.05486 
665 2 0 6.02657 1.96474 9.18297 
664 2 0 6.68822 2.84807 8.70796 
465 2 0 4.13 2.97482 9.26166 
1412 3 -1 6.84085 0.192769 8.40018 
426 2 0 5.68046 0.434631 8.7261 
1433 3 -1 7.83976 1.40743 9.18548 
1432 3 -1 6.44424 3.77732 8.54438 
666 2 0 6.97115 1.80819 9.19727 
867 2 0 7.0286 3.46038 9.40912 
428 2 0 3.85893 0.625972 8.57015 
1414 3 -1 6.84395 0.358202 9.45415 
1313 3 -1 5.79669 1.10119 9.51599 
1335 3 -1 4.75334 2.42165 9.98625 
667 2 0 5.78984 1.96223 10.1755 
430 2 0 5.12669 -0.145179 9.75233 
662 2 0 7.24418 2.46439 7.68306 
1508 3 -1 8.48332 0.288926 7.0852 
1059 2 0 9.44276 3.14477 7.81329 
1061 2 0 9.22639 3.40106 8.74661 
1531 3 -1 8.17325 2.86879 7.91352 
1060 2 0 9.68463 3.96432 7.35928 
862 2 0 7.82147 3.4718 7.2259 
863 2 0 7.53971 3.89469 8.39117 
1629 3 -1 11.124 3.63106 6.9749 
865 2 0 7.71378 3.09099 8.88339 
866 2 0 8.1318 3.2236 9.75753 
1065 2 0 10.2217 3.56501 8.92051 
1067 2 0 10.3076 2.96308 9.69472 
1069 2 0 9.48966 2.92418 10.2168 
1071 2 0 8.92454 2.19401 10.0983 
1068 2 0 10.279 3.70295 10.2925 
1617 3 -1 9.89245 0.732723 9.55949 
1533 3 -1 7.87239 2.29141 9.80043 
259 2 0 2.49489 3.94972 7.40939 
1210 3 -1 0.676826 4.1091 7.3139 
260 2 0 1.59864 4.33499 7.58157 
261 2 0 2.24114 3.87795 8.33101 
258 2 0 2.26957 5.3832 7.26201 
1229 3 -1 2.90062 5.88362 7.79428 
298 2 0 3.46723 5.41198 7.05418 
299 2 0 2.43573 6.50368 7.1133 
300 2 0 1.45226 6.20562 7.1543 
301 2 0 2.17754 6.55889 8.05127 
302 2 0 2.90688 7.09378 8.0967 
1250 3 -1 1.36172 5.50425 7.80882 
1230 3 -1 1.19953 4.50903 8.40411 
262 2 0 2.56682 4.75693 8.28287 
1348 3 -1 3.11775 7.36417 6.49611 
1251 3 -1 3.26136 6.78101 8.9073 
1231 3 -1 2.69926 5.64339 8.73178 
303 2 0 2.19015 6.5928 8.99732 
1252 3 -1 0.837013 5.45017 9.28134 
304 2 0 1.65065 5.88726 8.74631 
264 2 0 2.62716 4.12254 9.70496 
505 2 0 3.44017 6.37027 10.0062 
305 2 0 2.41081 6.15452 9.76956 
1232 3 -1 2.9266 5.04691 9.61 
306 2 0 2.01004 7.02423 10.0353 
268 2 0 1.40469 4.36637 10.3541 
459 2 0 3.73172 4.20736 6.92103 
1249 3 -1 4.27446 5.73032 7.46069 
460 2 0 4.45191 4.62796 7.43957 
1329 3 -1 5.38438 4.55994 6.80658 
497 2 0 4.73831 6.70511 6.98003 
498 2 0 5.13235 7.63416 7.10558 
499 2 0 4.80517 6.43215 7.93662 
500 2 0 4.48354 7.35157 8.0099 
699 2 0 5.64933 6.66503 7.43421 
1430 3 -1 6.56643 4.92834 7.46948 
702 2 0 6.93412 6.46402 7.89343 
701 2 0 6.04491 6.34304 8.29515 
501 2 0 4.91449 6.05242 8.84704 
502 2 0 4.73275 5.26739 8.38739 
464 2 0 4.31995 4.18327 8.82471 
860 2 0 7.63163 5.0564 6.49563 
1451 3 -1 7.37555 5.64076 7.66969 
700 2 0 5.93103 7.58904 7.75297 
1450 3 -1 6.74463 7.60446 8.30697 
1351 3 -1 5.31003 5.18716 9.20258 
703 2 0 6.03226 6.12029 9.21656 
504 2 0 4.60003 6.98804 9.18427 
1332 3 -1 4.04065 5.06193 9.10506 
503 2 0 4.14703 6.22379 9.36932 
868 2 0 7.1626 4.44422 9.40985 
704 2 0 6.77059 6.64593 8.96737 
907 2 0 7.80299 6.32612 9.4591 
467 2 0 4.65587 3.56651 9.7819 
468 2 0 5.20232 4.27679 9.99629 
1615 3 -1 11.5 -0.613425 9.23924 
705 2 0 6.15343 6.54346 10.0623 
706 2 0 7.02912 6.8979 10.0019 
1062 2 0 9.6297 4.22898 8.3611 
905 2 0 8.4246 5.78408 9.02312 
899 2 0 7.51724 6.60303 7.08106 
1099 2 0 9.91379 6.205 7.09956 
1100 2 0 10.5849 6.93854 7.14641 
901 2 0 8.26934 6.25279 7.54863 
902 2 0 9.02839 6.88254 7.37874 
861 2 0 7.53369 4.3307 7.53501 
1630 3 -1 10.4204 4.39152 6.92529 
1101 2 0 10.1473 6.26912 7.98366 
1102 2 0 11.115 6.24206 8.07634 
903 2 0 8.82378 6.10208 8.25471 
904 2 0 8.7078 7.01869 8.47654 
1103 2 0 10.3171 6.7337 8.87651 
1104 2 0 10.9326 7.22834 8.37402 
1651 3 -1 11.7154 6.91754 7.81404 
1064 2 0 9.71041 4.72267 9.34905 
864 2 0 7.92321 4.84747 8.6521 
1632 3 -1 9.81693 5.27281 8.55086 
1631 3 -1 10.5676 4.38121 8.36896 
1063 2 0 9.51495 3.81838 9.58127 
1532 3 -1 8.88654 4.91185 8.6956 
1105 2 0 10.8199 7.37838 9.48617 
1106 2 0 11.4586 6.70659 9.09008 
906 2 0 9.26991 5.66723 9.56239 
1066 2 0 10.9755 4.073 9.29885 
1534 3 -1 7.88889 4.97837 9.71942 
908 2 0 8.62433 6.76025 9.5989 
1553 3 -1 10.2996 5.75316 9.57836 
1633 3 -1 10.9926 5.03887 9.39499 
387 2 0 -1.0004 10.4144 10.4862 
1107 2 0 10.9062 6.74296 10.2343 
1653 3 -1 12.39 6.99783 9.09495 
337 2 0 1.54154 8.4516 7.28935 
338 2 0 1.61264 9.42045 7.28813 
339 2 0 1.04938 8.18474 8.03405 
340 2 0 0.660351 9.07484 7.93753 
539 2 0 2.55666 8.12398 7.45687 
540 2 0 2.75499 9.04603 7.22554 
1269 3 -1 1.01658 10.1383 7.47487 
1370 3 -1 2.70438 9.9547 7.4416 
541 2 0 2.77867 8.39425 8.33694 
341 2 0 0.278713 8.07869 8.64462 
542 2 0 3.47678 8.93966 8.04299 
342 2 0 0.273955 8.93236 9.17286 
543 2 0 3.34853 8.39075 9.1034 
544 2 0 3.00102 9.30152 9.20186 
1271 3 -1 0.816579 9.60763 8.86753 
580 2 0 3.14436 11.7607 7.1647 
343 2 0 1.04056 7.67102 9.02719 
585 2 0 2.35025 11.6178 8.7493 
588 2 0 1.22113 10.8974 8.62105 
345 2 0 1.34736 8.58828 9.18523 
1372 3 -1 2.05362 9.35094 9.08515 
587 2 0 1.85642 10.9533 9.28904 
344 2 0 0.584417 8.05177 9.77414 
347 2 0 1.29452 9.36615 9.81404 
548 2 0 3.17043 9.78667 10.3139 
1374 3 -1 2.6987 10.4553 9.78309 
348 2 0 1.73348 10.1297 10.1897 
1354 3 -1 3.20821 8.06157 10.191 
346 2 0 1.47974 8.32867 10.1217 
589 2 0 1.70646 11.5455 10.0731 
349 2 0 0.67442 8.97957 10.5183 
1350 3 -1 3.80597 7.88904 8.37364 
1349 3 -1 4.4493 8.35369 7.55889 
1371 3 -1 3.89449 9.78224 7.68765 
739 2 0 5.55167 8.63539 7.30602 
740 2 0 5.92869 9.46912 7.62749 
577 2 0 3.67482 10.6343 6.82699 
578 2 0 4.57696 10.2132 6.56922 
579 2 0 3.72761 11.1765 7.60396 
779 2 0 6.0497 11.1385 6.85591 