ITEM: TIMESTEP
101000
ITEM: NUMBER OF ATOMS
2250
ITEM: BOX BOUNDS pp pp ff
0 20
0 20
0 62
ITEM: ATOMS id type q x y z 
216 2 0 1.5381 19.8728 1.61099 
1704 3 -1 2.16246 0.327086 2.29597 
1708 3 -1 2.47457 19.8086 1.64455 
566 2 0 2.2059 2.28658 1.12106 
1883 3 -1 2.73993 3.06885 1.34979 
564 2 0 2.48965 3.48638 1.11195 
1732 3 -1 18.8936 4.94765 1.463 
476 2 0 0.888075 19.8545 1.30859 
1885 3 -1 4.31583 1.19433 2.17863 
471 2 0 19.6828 19.472 1.01352 
1829 3 -1 0.133831 0.856887 3.15717 
1730 3 -1 4.12063 19.471 1.27312 
1884 3 -1 3.31201 2.76034 2.42238 
568 2 0 3.42071 1.75971 2.11193 
1728 3 -1 5.87218 0.58266 3.17507 
569 2 0 3.26513 0.577033 1.38322 
570 2 0 3.41215 0.781912 2.23107 
565 2 0 3.10617 2.34519 0.983323 
567 2 0 2.79672 1.5021 1.47296 
571 2 0 3.64945 19.703 1.57879 
260 2 0 3.79894 0.337197 1.26899 
257 2 0 4.20854 0.50689 2.22468 
572 2 0 3.43262 19.8673 2.52945 
1887 3 -1 5.93347 19.8966 2.41539 
563 2 0 3.43014 3.26035 1.06444 
258 2 0 4.2819 19.9591 1.34182 
259 2 0 3.95297 1.17469 1.58124 
2130 3 -1 6.32554 0.0068341 1.73838 
1886 3 -1 3.35446 19.4597 3.34423 
640 2 0 9.98648 2.58935 2.77943 
886 2 0 9.41482 1.38015 3.63023 
665 2 0 9.4537 2.45329 2.71966 
880 2 0 10.0471 1.25494 1.04927 
865 2 0 9.40086 2.66076 1.96212 
867 2 0 9.85401 1.99381 2.46496 
655 2 0 9.58504 2.77754 1.45063 
887 2 0 9.79551 1.60846 3.17798 
666 2 0 9.61155 3.35342 2.9621 
679 2 0 9.50614 1.92633 3.4852 
885 2 0 9.05346 1.27476 2.71058 
668 2 0 9.43362 1.78404 2.81931 
1927 3 -1 8.48758 4.47547 2.20817 
2033 3 -1 9.32799 1.03694 1.71474 
802 2 0 7.54398 19.055 1.48766 
1920 3 -1 9.03575 2.90478 2.93725 
868 2 0 9.75547 2.5153 3.24056 
2034 3 -1 8.9198 2.00286 3.17635 
866 2 0 9.52369 1.90979 1.38024 
2156 3 -1 10.0189 0.844492 1.56257 
2031 3 -1 7.91361 3.51384 1.49243 
636 2 0 7.78972 2.90272 1.57913 
1918 3 -1 8.60029 2.40678 1.39401 
656 2 0 9.88197 2.45808 2.27509 
2001 3 -1 8.36406 19.1661 1.09703 
1110 2 0 10.0139 1.09665 3.07054 
2040 3 -1 9.05979 1.25175 1.12132 
677 2 0 10.2038 2.11171 2.86924 
879 2 0 9.93159 2.21256 1.18445 
2042 3 -1 9.46058 0.858552 1.00946 
641 2 0 10.416 3.53464 1.57257 
642 2 0 10.9775 2.79132 1.89972 
663 2 0 10.3805 2.37578 2.4677 
667 2 0 10.0704 2.13985 3.37914 
1928 3 -1 10.0139 2.98251 3.10575 
639 2 0 9.74032 3.211 2.14337 
862 2 0 8.69596 2.99312 1.17532 
637 2 0 8.85699 3.15416 2.50418 
645 2 0 9.95364 3.67453 1.94554 
670 2 0 10.7909 3.40863 2.8632 
888 2 0 9.49079 0.69922 3.11675 
2155 3 -1 9.62308 0.478499 3.61069 
2158 3 -1 9.33209 0.867686 2.52559 
2045 3 -1 10.6649 0.395456 2.39603 
889 2 0 10.4957 1.68258 3.83137 
884 2 0 9.66007 1.48713 1.66222 
1934 3 -1 10.3701 1.63179 3.27012 
883 2 0 10.0632 1.37492 2.59692 
1111 2 0 11.0682 0.489443 2.76422 
2008 3 -1 11.568 1.37169 1.6563 
816 2 0 11.2001 0.612505 2.16174 
878 2 0 11.061 3.15996 1.38831 
1939 3 -1 10.765 0.541942 3.27715 
1921 3 -1 11.3277 2.196 2.61388 
870 2 0 10.6299 2.08664 3.35445 
881 2 0 10.4305 2.07261 2.02603 
659 2 0 11.0773 2.25137 2.00265 
664 2 0 11.1065 3.12141 2.45316 
657 2 0 10.5024 2.95751 1.71502 
859 2 0 12.0392 1.57621 1.89705 
860 2 0 11.3023 1.7448 2.46954 
877 2 0 10.7257 2.30723 1.68473 
901 2 0 11.6815 1.43131 2.27407 
902 2 0 12.2936 0.708298 2.6507 
899 2 0 11.4711 0.680802 1.72574 
900 2 0 11.3333 0.0844435 2.5264 
2029 3 -1 12.5787 1.67384 1.71642 
658 2 0 11.1994 2.35763 1.43549 
1929 3 -1 11.4555 3.19183 1.04172 
858 2 0 13.3086 1.47015 2.3323 
903 2 0 11.4001 1.76073 3.20434 
660 2 0 10.361 1.8896 1.49746 
869 2 0 10.8157 2.0404 2.41585 
875 2 0 11.6852 2.21381 1.95813 
857 2 0 12.7396 2.23755 2.07522 
874 2 0 13.1756 2.93992 2.46028 
904 2 0 12.2265 2.18049 3.15575 
669 2 0 10.8451 2.44306 2.87136 
905 2 0 11.2277 0.82293 3.20202 
906 2 0 11.7545 0.427128 2.40642 
678 2 0 10.8428 1.46924 3.30588 
1547 2 0 12.282 1.1746 1.53446 
1551 2 0 12.4359 1.75276 2.93415 
1553 2 0 12.3661 0.831634 3.24807 
1554 2 0 12.7205 0.924304 2.37974 
873 2 0 12.4167 2.31368 2.54419 
1932 3 -1 10.2034 2.96489 2.20232 
2030 3 -1 11.665 1.22761 3.30078 
2019 3 -1 11.1278 0.152058 1.50639 
1552 2 0 13.1639 1.97815 2.35823 
1936 3 -1 12.364 1.47423 3.95471 
1548 2 0 12.1914 1.59508 2.34932 
1549 2 0 12.2676 2.01849 2.04516 
662 2 0 10.9037 2.05584 3.89277 
661 2 0 11.0301 1.89222 2.88869 
1930 3 -1 11.3177 1.81667 1.42016 
2374 3 -1 11.4745 0.990591 2.45283 
855 2 0 12.9859 1.79234 2.87568 
2052 3 -1 12.5856 2.83131 2.56845 
871 2 0 11.4979 2.68531 2.16246 
2181 3 -1 12.6209 3.36606 1.58473 
2041 3 -1 11.8078 1.76691 1.11259 
890 2 0 10.5327 1.0248 3.14734 
2377 3 -1 12.8204 1.15894 1.44539 
856 2 0 12.9719 2.63922 3.32692 
1180 2 0 13.5285 2.31378 3.72656 
2183 3 -1 13.1876 2.76524 1.44504 
1162 2 0 11.9115 2.89287 1.21556 
876 2 0 11.8494 3.15294 2.12977 
2049 3 -1 10.0922 1.65305 2.12056 
1112 2 0 10.4585 1.16435 2.47636 
882 2 0 10.9614 1.41 1.40923 
1101 2 0 11.8504 19.8856 0.989231 
1177 2 0 12.107 1.74348 3.35137 
674 2 0 10.5754 2.85828 2.65728 
1178 2 0 11.929 2.64609 3.22349 
1182 2 0 12.9931 2.11248 3.30676 
1550 2 0 13.1698 2.20485 1.70342 
1758 3 -1 12.9578 2.2452 1.20179 
915 2 0 12.6774 1.10671 2.90462 
2028 3 -1 12.8171 2.88748 4.19439 
2038 3 -1 12.124 3.83861 2.86667 
839 2 0 12.9433 0.54582 2.62073 
1175 2 0 11.9313 2.08256 2.492 
1176 2 0 11.3208 2.42669 3.15753 
2192 3 -1 12.0208 1.65362 4.58518 
672 2 0 12.1856 2.40514 3.61153 
893 2 0 11.3216 0.0627983 3.77184 
1174 2 0 12.9023 2.32989 3.89303 
872 2 0 11.3355 3.2693 2.9514 
1173 2 0 12.5686 2.50082 3.03274 
673 2 0 11.2507 2.92842 3.34667 
671 2 0 11.8156 2.6336 2.72475 
675 2 0 10.5256 2.39423 3.74083 
676 2 0 11.3318 1.85322 3.72166 
1938 3 -1 11.3381 1.36887 2.87474 
1184 2 0 11.6393 1.49872 3.71909 
1181 2 0 12.5833 2.85359 3.66651 
1196 2 0 12.7105 19.8765 4.465 
2186 3 -1 13.3305 2.4482 2.94432 
2025 3 -1 13.6829 2.23752 4.25593 
1575 2 0 13.2317 0.257046 1.83708 
1569 2 0 13.3747 0.30477 2.51025 
1172 2 0 13.2119 2.81002 3.82252 
1937 3 -1 10.9345 3.27201 1.89163 
2039 3 -1 11.7627 2.55122 1.59501 
1163 2 0 12.6478 4.24551 1.56055 
643 2 0 10.751 4.04445 2.36695 
1113 2 0 10.1508 0.281781 2.92245 
898 2 0 10.4266 0.774372 2.02188 
2387 3 -1 12.2287 0.573114 2.07147 
2209 3 -1 12.2015 1.23938 2.76167 
815 2 0 10.3321 0.725231 2.66464 
838 2 0 11.9824 0.0401012 1.84096 
2152 3 -1 9.9913 0.328339 2.06583 
1567 2 0 13.0316 0.845555 3.18383 
2157 3 -1 10.8641 0.635372 1.64429 
1114 2 0 10.2821 19.912 1.95903 
1565 2 0 13.0403 19.9357 2.88126 
913 2 0 13.1114 0.318457 3.18594 
1218 2 0 12.5158 0.2734 2.91308 
1572 2 0 12.8689 0.428354 1.26432 
2386 3 -1 12.516 1.01952 1.94452 
1179 2 0 12.6646 1.9232 4.12991 
1195 2 0 12.4177 0.800727 4.54028 
1183 2 0 11.6446 2.44057 4.06248 
916 2 0 11.998 1.04006 3.6015 
2206 3 -1 13.0751 0.992151 4.50623 
1750 3 -1 13.063 1.8243 3.74917 
1166 2 0 13.0848 3.7774 1.40234 
2376 3 -1 14.068 1.95167 1.96923 
2191 3 -1 12.8294 3.01406 2.97695 
1568 2 0 13.5205 0.159427 3.65755 
2190 3 -1 13.5206 1.96139 2.77696 
2389 3 -1 12.9796 0.703078 1.73874 
1545 2 0 13.0267 1.78287 1.44785 
841 2 0 13.7336 0.689172 2.12208 
1557 2 0 13.4902 19.5039 3.89748 
2375 3 -1 13.6482 2.62856 1.03399 
1578 2 0 13.9374 0.664917 1.67866 
1546 2 0 13.2343 1.04563 2.04849 
301 2 0 14.6571 3.15587 3.47247 
2373 3 -1 13.3356 1.41167 2.91861 
316 2 0 13.291 2.66917 1.95983 
1577 2 0 13.893 0.228055 2.54736 
1579 2 0 13.265 0.934723 2.70239 
1543 2 0 13.6315 2.53808 1.59699 
1539 2 0 15.012 3.07331 1.14266 
1541 2 0 14.069 3.35533 1.11439 
1544 2 0 14.3427 1.91638 1.02763 
854 2 0 13.5532 1.17425 1.5986 
2372 3 -1 14.7298 1.39854 1.75922 
853 2 0 13.7903 1.46599 2.50202 
1477 2 0 14.7124 0.9884 2.32056 
1479 2 0 14.7596 0.155823 2.7896 
317 2 0 14.5477 2.31699 1.97945 
1759 3 -1 15.7742 3.23392 1.36763 
318 2 0 15.3491 2.79407 2.15362 
319 2 0 14.8208 1.89148 2.85004 
1486 2 0 16.2182 1.77415 2.32835 
852 2 0 14.2681 2.18282 1.48155 
2343 3 -1 15.4575 2.10444 1.90965 
1431 2 0 16.3448 2.08446 3.44406 
851 2 0 14.5035 2.02929 2.42434 
849 2 0 14.3251 2.29379 3.26983 
2027 3 -1 14.4163 0.783476 1.50335 
315 2 0 14.0032 2.85364 2.59641 
1433 2 0 15.9682 1.43887 2.76888 
1478 2 0 13.8878 1.32386 1.92256 
850 2 0 13.4664 1.85683 3.32389 
918 2 0 13.9878 1.12944 3.01632 
1463 2 0 16.8926 3.38182 1.25541 
1481 2 0 15.4847 0.737566 3.13816 
1483 2 0 16.3635 0.522683 3.43372 
2390 3 -1 14.359 1.54738 2.20081 
2026 3 -1 15.2205 2.04081 1.26276 
845 2 0 13.8838 1.07462 3.47267 
1465 2 0 17.0101 2.60468 1.7236 
1475 2 0 14.9469 1.03013 1.36664 
320 2 0 15.3298 1.24913 2.50955 
2339 3 -1 13.3581 1.40863 1.13999 
299 2 0 14.5915 2.50421 2.72675 
1760 3 -1 16.1515 0.751893 2.80061 
1434 2 0 16.6788 1.47874 2.17945 
846 2 0 13.958 1.01455 2.45318 
1401 2 0 16.0788 0.232919 1.0729 
1476 2 0 14.8229 1.9528 1.56923 
2338 3 -1 14.8777 1.51256 2.48039 
2351 3 -1 16.3827 0.399528 1.95621 
1403 2 0 15.7983 0.363666 1.98168 
2358 3 -1 15.5282 0.160224 1.15268 
1468 2 0 16.7679 1.71145 2.64426 
1513 2 0 16.3186 0.251924 2.93259 
1432 2 0 16.3221 2.82755 2.75084 
2370 3 -1 14.1387 2.69022 1.36411 
1540 2 0 14.7863 2.13283 1.03004 
1404 2 0 16.2439 1.26515 2.08371 
1502 2 0 15.5376 0.823081 2.0878 
1514 2 0 16.2085 1.17024 3.16246 
297 2 0 14.7535 1.86366 3.40892 
2302 3 -1 15.9143 1.96766 1.55063 
1542 2 0 13.3899 3.17214 1.75617 
310 2 0 15.9751 2.35066 2.01357 
1755 3 -1 15.6348 1.40733 1.73351 
1534 2 0 16.875 2.82376 2.62205 
1474 2 0 16.1037 -0.016526 1.49994 
2301 3 -1 14.3795 19.8813 1.14965 
1473 2 0 15.9812 1.04213 1.2848 
2346 3 -1 16.6323 1.20329 1.06587 
285 2 0 15.6437 1.27956 3.46551 
291 2 0 14.9868 2.32144 3.00991 
1454 2 0 16.5802 1.31873 3.49111 
2344 3 -1 17.322 3.21448 1.6579 
1492 2 0 16.1105 0.703876 1.65923 
1754 3 -1 15.528 1.79463 2.90189 
1537 2 0 15.6733 2.6202 1.72501 
1561 2 0 14.2182 0.0408109 2.84009 
1580 2 0 13.8479 1.64712 3.04706 
844 2 0 14.5364 0.25701 3.40074 
1516 2 0 15.1946 0.297864 2.03805 
2023 3 -1 13.9823 0.601272 3.32089 
1402 2 0 15.1703 0.316067 1.46501 
1411 2 0 15.0445 0.548014 2.51371 
1501 2 0 14.6916 0.3074 2.18296 
1562 2 0 15.0103 19.9507 2.37752 
2381 3 -1 15.0226 0.732046 1.82245 
2347 3 -1 15.664 19.7065 3.75573 
296 2 0 16.1415 1.60882 3.58018 
1747 3 -1 13.9875 2.11284 2.58225 
300 2 0 13.744 2.32818 3.12563 
293 2 0 14.7146 1.42075 3.08106 
1739 3 -1 17.0542 2.4335 2.94982 
1437 2 0 15.6288 0.236644 3.72398 
1536 2 0 14.7756 2.7703 2.15875 
282 2 0 16.1676 2.56489 3.82309 
1533 2 0 16.0552 3.33104 2.54405 
1757 3 -1 14.3128 3.01897 3.04368 
2368 3 -1 14.4573 3.63889 2.11105 
1535 2 0 15.5756 2.52373 2.67759 
2369 3 -1 14.097 2.50378 2.15037 
292 2 0 15.6846 1.86321 3.52895 
2020 3 -1 13.3522 19.6717 1.74842 
1571 2 0 13.7142 0.154446 1.59031 
2017 3 -1 13.4162 0.547778 1.43504 
1413 2 0 15.9989 0.355329 2.49448 
1515 2 0 15.341 0.247343 3.03413 
2341 3 -1 14.9482 0.562886 3.19136 
284 2 0 16.1554 2.00379 3.8894 
917 2 0 13.2798 1.24952 3.67983 
1749 3 -1 14.1695 3.27302 4.27827 
1838 3 -1 1.5747 19.1815 1.04846 
1466 2 0 16.3437 3.05755 2.24597 
1406 2 0 16.6907 0.673325 3.04493 
2334 3 -1 16.3555 1.91703 1.78534 
275 2 0 16.0643 2.51736 2.47906 
2357 3 -1 16.6154 0.749219 2.43496 
1428 2 0 18.0589 2.30505 4.57214 
277 2 0 16.247 2.91561 3.34363 
1415 2 0 16.6543 19.6385 2.31247 
2317 3 -1 16.7339 2.00194 1.36914 
1439 2 0 16.4405 19.879 3.45192 
1471 2 0 16.9245 0.764098 1.15002 
2303 3 -1 17.0183 19.8902 3.53608 
1472 2 0 17.0233 19.9605 1.5676 
1455 2 0 17.61 1.64669 3.86806 
1485 2 0 16.7642 1.18005 2.83764 
2345 3 -1 18.7838 0.88891 2.21503 
281 2 0 17.0395 2.29404 3.40967 
1488 2 0 16.6061 2.46627 2.05198 
1490 2 0 17.972 1.3114 1.74985 
1451 2 0 16.636 2.28411 2.54245 
1491 2 0 16.9283 0.28168 1.97429 
1457 2 0 17.8106 0.927544 3.23874 
1467 2 0 16.9696 1.5869 1.69329 
2326 3 -1 17.0986 3.67362 1.95247 
1469 2 0 17.2942 0.702927 2.01608 
1736 3 -1 18.5214 1.09597 2.61182 
1487 2 0 17.2846 2.08622 2.61934 
267 2 0 18.7319 2.81207 2.50866 
268 2 0 17.9919 2.88534 1.88318 
1450 2 0 17.2096 2.28061 1.35281 
270 2 0 18.14 1.65878 2.31826 
269 2 0 18.5245 2.08531 3.10944 
272 2 0 17.5765 1.15427 2.44586 
271 2 0 17.6159 1.75961 3.30767 
1489 2 0 17.0952 1.19612 2.13667 
273 2 0 16.7279 2.0167 3.06076 
1445 2 0 17.5592 19.9583 2.55758 
2325 3 -1 17.1171 2.45962 2.32231 
1448 2 0 18.0194 1.33847 2.75259 
1452 2 0 16.5475 2.87119 1.79201 
1449 2 0 17.2951 1.71419 2.16141 
1443 2 0 17.6122 19.7915 3.41658 
1447 2 0 17.158 0.803867 2.50565 
276 2 0 16.9122 3.03733 2.19099 
1470 2 0 17.3815 1.19516 2.94455 
2356 3 -1 17.9837 0.287687 2.4744 
1460 2 0 18.1863 0.152621 2.02398 
1512 2 0 17.2702 0.2829 3.06922 
2355 3 -1 16.8583 0.354532 2.59595 
2330 3 -1 18.4662 19.8167 1.10099 
1738 3 -1 17.6702 2.43769 2.26891 
1734 3 -1 17.3767 3.49653 2.33236 
1424 2 0 17.5125 0.676857 3.69784 
266 2 0 17.8129 3.57451 1.92232 
265 2 0 18.7421 3.7208 2.33523 
2367 3 -1 16.5322 3.44371 1.86543 
2328 3 -1 18.2125 1.33828 3.20363 
1453 2 0 17.3139 1.71423 2.93903 
1425 2 0 17.3705 1.26425 3.53122 
1423 2 0 17.74 0.74957 2.80001 
1737 3 -1 18.1289 2.93292 3.37236 
262 2 0 19.1265 4.09332 1.21526 
1731 3 -1 18.7802 4.46895 2.12627 
1735 3 -1 17.4431 1.97371 1.68926 
279 2 0 17.0432 3.27048 3.56154 
2335 3 -1 18.2295 0.834631 2.95496 
1511 2 0 16.8003 19.4814 3.1771 
2309 3 -1 18.6672 19.3061 1.92384 
283 2 0 16.4434 1.61236 3.0288 
274 2 0 17.2057 2.79986 3.25811 
1882 3 -1 2.72285 3.89739 1.92766 
261 2 0 19.9876 3.80156 1.02536 
1761 3 -1 19.8218 9.69239 1.57452 
562 2 0 4.34323 4.91482 1.48194 
1881 3 -1 3.87967 5.7168 1.63996 
561 2 0 4.01671 4.08702 0.954579 
629 2 0 6.53741 5.76412 2.4861 
625 2 0 5.19839 6.68812 1.66955 
1913 3 -1 5.38439 5.73694 2.1104 
649 2 0 9.59692 3.61588 2.52523 
654 2 0 8.52214 3.74975 1.48386 
635 2 0 8.25153 3.70273 1.92968 
1933 3 -1 9.62636 4.08625 3.48443 
644 2 0 10.2175 3.35537 2.79972 
1915 3 -1 7.28364 7.32339 3.39461 
630 2 0 6.78378 6.66721 2.85211 
647 2 0 9.1211 3.14838 1.89428 
863 2 0 8.89428 3.34104 1.44318 
631 2 0 7.34632 5.11992 2.3997 
632 2 0 7.49209 4.96572 3.31579 
1917 3 -1 7.75938 4.21252 2.84867 
651 2 0 9.20906 4.44259 2.23357 
648 2 0 8.70188 3.99635 2.08616 
1923 3 -1 9.45684 3.19264 1.29258 
1925 3 -1 10.4438 4.29092 1.85737 
1922 3 -1 9.37893 3.00959 2.46621 
650 2 0 10.3964 3.41417 2.17891 
652 2 0 9.57358 5.08087 1.62252 
653 2 0 9.36754 3.606 1.796 
634 2 0 8.01072 4.9863 2.43706 
1916 3 -1 7.54028 5.79926 3.7053 
633 2 0 7.47579 4.30795 1.96531 
2032 3 -1 9.53423 4.61181 1.84016 
864 2 0 9.77778 3.79691 1.35067 
861 2 0 8.11134 3.71314 0.997189 
1924 3 -1 8.32526 3.18435 1.61809 
646 2 0 9.15515 4.03053 1.60124 
2189 3 -1 11.5329 3.50121 3.41622 
1171 2 0 13.2669 3.33712 3.04666 
1165 2 0 13.2996 4.20884 2.27168 
1926 3 -1 9.27849 6.01212 1.56403 
2037 3 -1 12.9363 3.72132 1.93028 
2182 3 -1 12.5158 4.38805 2.88702 
1752 3 -1 13.535 3.29982 3.57779 
1164 2 0 12.3407 3.61652 2.36005 
1161 2 0 11.933 3.84503 0.985617 
1935 3 -1 10.0448 3.84842 2.44111 
303 2 0 13.7725 3.21797 3.06589 
1753 3 -1 14.7872 3.19386 2.85898 
304 2 0 13.6055 4.172 3.02177 
307 2 0 15.209 3.0915 3.14282 
1538 2 0 14.7801 2.84239 1.51364 
2371 3 -1 12.7193 3.21346 1.07005 
2332 3 -1 15.7105 3.82714 1.5323 
2185 3 -1 13.1091 2.84207 5.15212 
1756 3 -1 13.7269 3.05192 1.44488 
313 2 0 13.9197 3.74254 2.98425 
311 2 0 14.4397 3.06183 2.54437 
2316 3 -1 16.2746 3.74337 3.01061 
306 2 0 14.3521 3.02171 2.00304 
309 2 0 15.0688 2.34389 2.41024 
308 2 0 15.8947 2.50373 3.35936 
1464 2 0 16.5825 4.21819 1.58122 
1167 2 0 13.9725 3.56017 2.51178 
1169 2 0 14.0132 3.76141 3.51089 
2333 3 -1 16.7814 3.15026 3.0535 
1170 2 0 13.3652 3.30805 4.18683 
312 2 0 14.6584 3.33147 1.62056 
2184 3 -1 15.589 4.27681 2.56789 
314 2 0 14.4747 3.62123 3.76282 
305 2 0 14.4983 3.58168 2.73759 
1168 2 0 14.6684 4.07609 2.84752 
1462 2 0 15.5615 2.79387 1.16201 
1461 2 0 15.9696 3.62049 0.994666 
1530 2 0 16.4951 5.12682 1.50277 
2365 3 -1 16.0614 4.23296 1.22498 
2331 3 -1 15.1195 3.24929 1.9324 
1525 2 0 16.7989 6.07245 1.58051 
1526 2 0 17.2707 5.19454 1.86072 
2363 3 -1 16.6053 4.55635 2.16107 
1531 2 0 16.2873 4.30655 2.49734 
1529 2 0 17.086 4.75386 2.18275 
1527 2 0 17.2503 5.30253 1.33894 
1528 2 0 18.0162 5.89458 1.6005 
2364 3 -1 18.6304 6.42207 1.06263 
1532 2 0 17.0669 3.83858 2.87513 
2366 3 -1 17.8902 4.42225 2.67454 
2314 3 -1 17.2175 2.80179 4.4848 
1733 3 -1 17.6961 2.76296 1.43084 
263 2 0 19.4125 4.17464 1.76057 
264 2 0 19.4799 5.05964 2.23015 
323 2 0 0.199928 9.03262 1.41724 
327 2 0 1.55726 9.86116 2.46621 
325 2 0 0.88248 9.58727 1.77246 
1796 3 -1 1.54934 10.7957 3.52027 
322 2 0 19.5117 8.81346 1.31115 
328 2 0 2.42544 9.94911 2.02599 
326 2 0 0.294477 9.44697 2.52732 
1911 3 -1 3.58458 7.74515 2.00958 
410 2 0 1.28398 10.7485 3.05272 
1764 3 -1 3.00202 10.7184 2.13318 
330 2 0 1.83338 10.8464 2.05103 
329 2 0 1.93067 10.5927 2.95938 
1805 3 -1 0.326649 10.4854 2.68122 
1806 3 -1 1.46834 11.428 1.1036 
1765 3 -1 1.7619 9.9413 1.87601 
627 2 0 6.00234 6.15611 1.76569 
626 2 0 4.93421 5.88015 1.20924 
628 2 0 6.0277 6.95048 2.26601 
1914 3 -1 5.74775 6.6682 3.13715 
1912 3 -1 4.5939 8.96522 1.44823 
624 2 0 5.06415 8.16318 1.48408 
622 2 0 3.81552 8.60799 1.63034 
623 2 0 4.56134 7.35129 1.32838 
621 2 0 3.82274 7.88068 1.00149 
2062 3 -1 7.1023 10.2213 1.47141 
2061 3 -1 7.98787 8.76084 1.62543 
924 2 0 7.21454 9.41369 1.08946 
921 2 0 7.95278 8.20372 0.975913 
922 2 0 7.06576 8.44746 1.19617 
923 2 0 8.16066 9.08903 1.29691 
925 2 0 8.812 9.84351 1.06331 
926 2 0 8.58204 10.3012 1.84442 
2063 3 -1 7.98425 9.7069 2.34904 
2213 3 -1 10.4989 8.47444 1.22902 
2092 3 -1 8.38458 10.496 1.33989 
1221 2 0 11.7231 7.98183 0.991113 
1222 2 0 11.7246 8.79106 1.53847 
1223 2 0 11.2812 8.84418 1.26678 
1224 2 0 11.9393 9.19009 1.90336 
2211 3 -1 12.4609 8.88982 2.21094 
1225 2 0 10.4726 9.4851 1.50268 
2212 3 -1 11.5089 9.83954 2.49376 
1226 2 0 9.7287 8.94643 1.49051 
1228 2 0 9.40606 10.14 1.489 
2362 3 -1 17.4313 6.58582 1.87612 
1524 2 0 16.7746 7.25749 2.19366 
1521 2 0 16.0814 7.71946 1.02882 
1523 2 0 16.3341 6.8812 1.43645 
2361 3 -1 16.4502 8.75777 1.28962 
1522 2 0 16.6668 8.00167 1.73455 
324 2 0 19.305 9.38728 1.65503 
321 2 0 0.146829 8.23675 0.952357 
1763 3 -1 19.6896 9.09516 3.3256 
1762 3 -1 18.9775 8.86083 2.34571 
1800 3 -1 1.61386 11.1584 1.54207 
1807 3 -1 0.735078 11.9505 4.11367 
1769 3 -1 2.54507 10.6681 1.6505 
1787 3 -1 0.364819 11.7847 2.21621 
393 2 0 3.02174 11.7143 3.31207 
391 2 0 2.31953 12.297 3.07076 
395 2 0 2.06749 11.8822 3.10551 
396 2 0 2.30457 12.0089 2.13946 
378 2 0 2.48884 11.3889 3.14939 
397 2 0 2.86254 11.6002 2.80107 
377 2 0 2.8413 12.2318 3.45935 
379 2 0 2.11336 12.2467 4.10208 
399 2 0 2.70886 12.418 2.20127 
331 2 0 2.25251 11.4934 2.72496 
335 2 0 3.16209 11.9083 2.2333 
332 2 0 1.51278 11.5185 1.9948 
1775 3 -1 4.06297 14.0098 1.16033 
436 2 0 0.777255 11.7349 3.23031 
404 2 0 1.34998 13.3368 2.37928 
337 2 0 2.48909 12.3289 1.69791 
400 2 0 1.96067 12.0773 1.69276 
339 2 0 2.64699 12.9761 1.0796 
341 2 0 2.69956 12.937 2.08249 
380 2 0 2.44178 11.7913 4.88163 
425 2 0 3.3545 12.0942 1.73551 
426 2 0 3.25842 12.9031 1.22915 
389 2 0 2.11766 12.4842 2.13701 
371 2 0 1.19284 12.8184 2.38519 
382 2 0 0.0304188 13.0594 1.07418 
345 2 0 3.37965 13.2128 2.51232 
390 2 0 2.89387 12.6432 1.58201 
1791 3 -1 0.614254 12.3552 1.40831 
406 2 0 0.888505 12.3463 3.36937 
423 2 0 3.174 13.021 1.90255 
1794 3 -1 0.755887 13.8597 1.26485 
388 2 0 1.59277 13.4468 1.34499 
387 2 0 1.89444 12.5897 1.1564 
417 2 0 2.18815 12.7345 1.60788 
419 2 0 1.61236 13.4652 1.86496 
357 2 0 3.29409 12.3937 3.25449 
1813 3 -1 2.60551 13.553 1.07116 
1802 3 -1 1.55978 12.7964 1.55096 
416 2 0 1.13498 11.5356 1.62216 
415 2 0 1.62834 12.174 2.21888 
435 2 0 0.969541 12.7149 2.92302 
358 2 0 2.93816 12.9867 2.55497 
1809 3 -1 2.34657 11.5711 1.51593 
401 2 0 1.98692 12.9447 2.11756 
403 2 0 1.19336 12.553 1.86647 
375 2 0 2.02694 11.7513 3.61651 
392 2 0 1.76653 11.5259 2.94372 
373 2 0 1.55618 11.979 2.72486 
409 2 0 1.29617 11.7144 3.16684 
431 2 0 2.80113 12.1898 2.90923 
407 2 0 0.393595 11.7577 2.79188 
1766 3 -1 2.03354 10.9877 2.52645 
440 2 0 0.667235 13.1193 2.17761 
418 2 0 1.60383 12.1336 1.14277 
1808 3 -1 2.05717 11.5174 1.9224 
411 2 0 1.57072 11.14 2.49197 
412 2 0 0.945206 10.9546 1.75064 
385 2 0 1.35485 12.0769 1.71573 
352 2 0 3.32919 12.5133 2.06742 
437 2 0 1.52644 13.4507 3.21067 
365 2 0 1.66699 12.7298 2.51202 
398 2 0 3.67121 12.0933 3.11459 
342 2 0 3.40997 12.5717 2.68399 
1768 3 -1 2.82843 11.9709 1.60016 
368 2 0 0.804021 13.7188 2.0161 
405 2 0 0.534137 12.666 2.58464 
1784 3 -1 0.360191 13.1357 2.60313 
381 2 0 0.258952 12.1159 0.980168 
414 2 0 1.4793 12.0927 3.57119 
413 2 0 0.986646 11.8399 2.78515 
383 2 0 0.470588 12.2518 1.9476 
408 2 0 0.674204 11.3672 1.97614 
372 2 0 1.20231 12.8638 3.38373 
374 2 0 1.12152 11.1851 2.27894 
1776 3 -1 2.93663 12.6788 2.93824 
402 2 0 1.4492 13.0359 2.88769 
376 2 0 2.88407 11.6705 4.07198 
1817 3 -1 2.4107 11.2289 4.05846 
333 2 0 2.61875 11.3033 1.84402 
1790 3 -1 1.96478 11.7931 5.73739 
1798 3 -1 2.29512 12.7393 2.61993 
434 2 0 2.52808 11.8767 3.33433 
433 2 0 1.95067 12.5781 3.1534 
359 2 0 2.39292 12.8103 3.29658 
366 2 0 1.77683 12.9075 3.54662 
1783 3 -1 1.02484 12.7732 4.22798 
1789 3 -1 2.25661 10.4371 3.44986 
344 2 0 3.6395 12.5025 1.49203 
428 2 0 4.09803 10.7725 2.47963 
432 2 0 3.1025 12.278 3.88687 
384 2 0 0.152349 11.3444 1.8357 
421 2 0 2.37369 13.2238 2.38353 
1785 3 -1 2.28612 13.5691 1.96329 
1782 3 -1 1.09039 14.0099 3.07509 
394 2 0 2.59434 10.8782 3.45736 
1803 3 -1 1.7471 12.4624 3.82829 
1788 3 -1 3.52844 11.377 4.6335 
1797 3 -1 2.04876 10.0742 3.15618 
361 2 0 2.72188 13.2911 4.05949 
1786 3 -1 1.17003 12.2643 2.58211 
1799 3 -1 3.35964 12.9872 3.25575 
351 2 0 3.92809 12.4813 2.78303 
1795 3 -1 3.80257 12.851 2.07469 
684 2 0 4.06252 12.1402 2.31668 
427 2 0 4.20074 11.6206 2.05236 
338 2 0 2.88021 11.5388 1.35357 
349 2 0 4.6062 12.9629 2.31878 
1772 3 -1 3.41147 11.51 1.5297 
355 2 0 3.61044 13.2617 3.60537 
1771 3 -1 3.85435 11.716 2.52287 
1942 3 -1 3.61327 11.6171 2.93922 
429 2 0 3.33813 11.515 2.50073 
336 2 0 3.07422 11.0735 1.69357 
682 2 0 3.66984 13.1471 1.15939 
681 2 0 3.85015 12.2484 0.981412 
683 2 0 4.08407 12.8496 1.67097 
1815 3 -1 4.86477 11.8256 3.56259 
353 2 0 3.60082 12.2941 3.68207 
685 2 0 4.42079 13.801 1.75506 
687 2 0 5.27282 14.1076 2.06758 
1993 3 -1 4.54121 12.1429 4.62102 
1767 3 -1 4.42493 11.0718 2.19432 
334 2 0 3.50111 11.1065 2.22728 
1814 3 -1 3.26958 10.3098 2.63588 
430 2 0 4.13332 11.84 2.93054 
350 2 0 3.9129 13.3913 1.88268 
424 2 0 3.92947 13.1122 2.5242 
347 2 0 4.13868 13.5834 2.79931 
927 2 0 9.2742 10.6377 1.14959 
2064 3 -1 7.69732 11.1998 2.1697 
2095 3 -1 10.8072 12.4778 1.52539 
990 2 0 9.97444 11.9806 1.53821 
928 2 0 8.51144 10.9905 1.65561 
930 2 0 9.68084 10.7359 2.39519 
929 2 0 9.39204 11.4348 1.71099 
981 2 0 7.81305 11.9466 1.01671 
982 2 0 8.27385 12.3727 1.75811 
983 2 0 8.81406 12.1521 1.40308 
2091 3 -1 8.78376 11.6051 1.3638 
984 2 0 9.11391 11.1978 1.36879 
931 2 0 9.43669 12.4367 2.06204 
985 2 0 9.32617 11.9542 2.09058 
991 2 0 9.88417 13.3537 2.28186 
993 2 0 9.1432 12.8642 2.6841 
2070 3 -1 9.9799 12.5375 2.20172 
1232 2 0 10.1805 12.4177 3.07198 
934 2 0 9.29444 13.1865 2.29654 
2093 3 -1 10.5011 11.7548 1.17313 
994 2 0 8.4748 12.2924 2.98374 
2082 3 -1 8.73275 12.7263 3.27724 
968 2 0 9.9464 12.9341 3.20226 
2084 3 -1 9.25538 13.5932 3.06397 
1308 2 0 8.11506 13.8011 3.16483 
2065 3 -1 9.76075 9.85056 2.83197 
2214 3 -1 9.17715 9.16254 1.6135 
989 2 0 9.47903 12.8093 1.59283 
987 2 0 9.62451 12.7723 2.53048 
932 2 0 9.7115 11.5061 2.32552 
933 2 0 10.1547 12.9463 2.53451 
986 2 0 9.61074 12.1216 1.18883 
988 2 0 10.5196 12.6644 2.36581 
1230 2 0 9.35615 11.6925 1.28668 
2215 3 -1 9.59089 10.895 1.79946 
1303 2 0 9.90612 12.9678 1.93817 
964 2 0 7.81993 13.0247 2.96185 
996 2 0 7.60222 13.6137 3.09873 
2245 3 -1 10.0179 12.5194 1.55042 
2253 3 -1 8.77545 14.4771 1.40532 
2098 3 -1 7.23574 13.154 2.35166 
2097 3 -1 8.45829 11.5107 3.48615 
2218 3 -1 10.5215 13.1678 1.6483 
976 2 0 9.4261 13.071 3.03718 
992 2 0 10.7527 13.5729 1.93005 
2066 3 -1 9.2279 11.1344 3.03572 
940 2 0 10.528 13.2736 2.34631 
1227 2 0 10.3491 10.3792 1.60532 
2216 3 -1 9.56671 12.0989 3.77424 
1304 2 0 10.9519 13.039 1.92224 
1292 2 0 11.7982 12.4313 3.03586 
1231 2 0 10.3804 12.0511 2.21728 
2252 3 -1 11.7086 12.9965 1.40507 
1291 2 0 11.0621 12.7905 3.501 
1337 2 0 10.9721 13.6248 3.52107 
1234 2 0 11.1419 12.3809 2.69201 
1288 2 0 12.1695 12.9664 1.19259 
937 2 0 11.1007 13.3804 2.31153 
2243 3 -1 12.6837 13.6507 3.22721 
1286 2 0 11.8604 13.1234 3.12631 
1233 2 0 11.3103 11.8443 1.96015 
1290 2 0 10.8748 12.3433 2.09077 
1287 2 0 11.4572 13.292 1.77015 
1289 2 0 11.5031 12.9654 2.66616 
1293 2 0 10.9521 13.5674 2.91764 
1229 2 0 9.98164 11.2439 1.9214 
1281 2 0 12.2501 12.1108 1.00875 
1282 2 0 11.5268 11.7297 1.4308 
1283 2 0 12.0453 12.6899 1.70318 
1284 2 0 11.7476 12.1852 2.50278 
2241 3 -1 11.8591 11.6513 2.26622 
1235 2 0 11.3011 12.7204 1.68584 
2217 3 -1 11.9811 12.8425 2.65722 
2094 3 -1 11.4197 12.5775 2.19212 
1339 2 0 11.7799 14.0843 3.177 
2244 3 -1 11.6505 12.2634 1.78635 
1236 2 0 11.2153 13.4304 1.01894 
1294 2 0 10.1429 13.8252 3.42204 
2242 3 -1 11.4982 12.8217 3.16984 
2219 3 -1 11.4079 13.4339 3.20157 
2248 3 -1 12.8062 13.7465 2.39587 
1336 2 0 10.7263 13.0729 3.27453 
1340 2 0 11.7255 13.4274 2.42215 
2096 3 -1 10.0205 14.1321 1.94107 
2394 3 -1 14.5177 13.3254 2.72768 
1581 2 0 15.9677 12.0759 1.07854 
1583 2 0 15.1349 12.3854 1.56017 
1582 2 0 15.2878 12.8195 1.09882 
1584 2 0 15.8046 12.5613 2.23212 
1585 2 0 14.5813 13.1447 1.90658 
2392 3 -1 16.3773 11.8679 2.55941 
2391 3 -1 15.1797 12.9145 2.00967 
1804 3 -1 1.13603 11.3416 2.82049 
1818 3 -1 1.29902 11.8443 4.04669 
386 2 0 0.642807 11.7287 1.10389 
1793 3 -1 0.333962 10.8345 1.45915 
1792 3 -1 0.677207 11.2073 1.05445 
340 2 0 2.7474 13.7409 1.5696 
1770 3 -1 2.85428 14.6718 1.70492 
343 2 0 3.42798 13.3989 1.5905 
420 2 0 2.24977 14.1005 1.50629 
363 2 0 2.09754 13.3969 3.23501 
367 2 0 0.975759 13.3056 2.84011 
360 2 0 2.86632 13.4328 2.7992 
1778 3 -1 3.40399 13.3203 5.34244 
439 2 0 0.617963 13.1762 3.16405 
370 2 0 2.43433 13.1514 2.88566 
422 2 0 2.3314 14.1279 2.1123 
369 2 0 1.76093 13.6162 2.4139 
1774 3 -1 3.06958 14.6977 2.47672 
346 2 0 2.90511 14.0326 2.7743 
1810 3 -1 3.21002 13.9275 1.51483 
1779 3 -1 2.50064 13.8749 2.5636 
1773 3 -1 3.08842 13.4624 3.46997 
761 2 0 2.64261 15.058 1.93353 
757 2 0 3.19496 15.1326 3.72106 
765 2 0 2.53223 15.8397 1.58128 
441 2 0 0.306758 15.8827 1.02804 
740 2 0 3.21063 15.6495 2.2809 
759 2 0 3.08222 15.1386 2.74933 
1970 3 -1 2.30251 15.2579 2.4377 
1822 3 -1 1.54875 15.8413 2.75857 
768 2 0 2.11573 14.7777 2.17412 
767 2 0 2.77491 15.3939 2.42382 
739 2 0 2.64537 15.3417 1.49108 
444 2 0 1.73544 15.9101 1.86587 
769 2 0 3.29329 14.8093 3.07542 
1959 3 -1 3.69184 15.4077 2.20321 
1985 3 -1 2.41222 14.4033 2.65488 
1983 3 -1 3.76038 15.7604 1.6604 
730 2 0 3.57139 15.4955 2.73954 
762 2 0 2.16226 15.9107 2.1292 
443 2 0 1.12922 15.3966 1.25839 
763 2 0 2.92445 15.1971 0.981603 
1981 3 -1 2.86642 16.5326 2.30671 
764 2 0 3.46591 15.8984 1.26005 
614 2 0 2.26456 15.4681 1.87559 
714 2 0 3.93081 16.146 2.10617 
1984 3 -1 2.84261 14.1719 1.97195 
1811 3 -1 2.08733 14.928 1.66692 
615 2 0 2.88981 16.8633 1.89865 
1846 3 -1 3.15129 17.0828 3.62494 
442 2 0 0.564926 15.0592 1.44883 
738 2 0 3.40179 16.3422 1.5439 
1909 3 -1 2.95494 16.2493 1.02534 
1969 3 -1 2.42837 16.451 1.12056 
445 2 0 0.287863 15.5745 1.57415 
713 2 0 3.3688 16.0262 2.93431 
240 2 0 3.51763 16.7431 2.13304 
1982 3 -1 2.5648 15.8826 1.09206 
613 2 0 2.78241 16.0634 2.47049 
618 2 0 3.0715 16.1704 1.98667 
617 2 0 2.81908 16.4816 2.82123 
619 2 0 2.84304 16.3441 3.84495 
1720 3 -1 3.71919 15.903 2.50664 
1966 3 -1 2.73764 15.4184 3.04135 
489 2 0 3.37134 16.8928 1.25825 
364 2 0 1.39282 13.5017 3.81688 
1801 3 -1 1.90903 13.8349 3.04266 
734 2 0 3.25783 15.4082 3.2102 
715 2 0 3.91898 15.2636 3.08426 
706 2 0 3.42892 17.597 3.30112 
1812 3 -1 3.91794 14.0766 2.62823 
1821 3 -1 1.25521 14.5007 1.93725 
448 2 0 1.20868 15.5267 2.88372 
1719 3 -1 1.61915 15.349 2.53102 
711 2 0 2.61656 16.4976 3.3726 
232 2 0 0.419031 17.5677 2.63341 
732 2 0 3.28703 16.1273 3.53616 
1823 3 -1 1.15084 14.9017 2.82636 
438 2 0 2.04143 14.2183 3.50338 
1819 3 -1 2.58051 14.6581 4.19154 
1941 3 -1 4.51057 13.5102 0.998033 
690 2 0 5.4146 15.0226 1.17469 
766 2 0 3.13831 15.0852 1.54527 
1987 3 -1 4.04565 14.5056 3.11854 
737 2 0 3.61801 15.3474 1.45778 
1907 3 -1 3.23491 15.5995 1.73089 
1957 3 -1 3.48423 16.7448 2.67064 
348 2 0 3.79665 14.1463 2.11764 
356 2 0 3.08425 13.2783 4.40365 
1943 3 -1 5.89374 13.3876 1.28993 
774 2 0 4.0836 15.0924 2.39468 
733 2 0 4.05684 15.9118 2.9555 
731 2 0 4.16464 16.1458 3.95927 
718 2 0 4.65561 15.0606 2.15281 
735 2 0 4.3116 15.6385 2.0251 
760 2 0 3.68607 14.6166 2.22328 
770 2 0 3.33769 14.2284 2.33887 
1965 3 -1 3.566 15.0163 1.85379 
726 2 0 4.42116 14.1362 2.75609 
1958 3 -1 4.85711 16.0297 4.60162 
736 2 0 4.5013 14.8088 1.65704 
1974 3 -1 5.06726 13.1872 3.15096 
1980 3 -1 3.81072 13.6727 2.33453 
616 2 0 3.86477 16.9848 1.80848 
772 2 0 3.68284 15.7705 3.33583 
716 2 0 4.47712 15.6445 3.78507 
771 2 0 4.10338 14.8947 3.44605 
725 2 0 4.38025 15.0802 2.92701 
773 2 0 4.93287 15.0117 2.88979 
1946 3 -1 4.28298 14.1404 2.14682 
688 2 0 5.99919 14.5632 2.41341 
723 2 0 4.28706 15.1422 3.94638 
686 2 0 5.01353 12.9774 1.56138 
1944 3 -1 6.89191 14.8631 2.2077 
747 2 0 4.60776 14.6326 3.22364 
1968 3 -1 5.16692 14.2817 1.039 
1975 3 -1 5.38696 14.8305 2.69063 
775 2 0 5.46437 14.3355 2.47975 
750 2 0 5.61694 14.4082 3.50803 
748 2 0 5.32206 14.0416 3.21407 
1972 3 -1 5.71438 15.449 1.00996 
744 2 0 5.10749 15.0731 1.70527 
1991 3 -1 4.82453 13.6065 2.40816 
776 2 0 4.92688 13.6718 2.95013 
719 2 0 4.52994 15.3912 3.34791 
777 2 0 5.16511 14.4873 1.52101 
720 2 0 5.23445 15.3701 2.705 