ITEM: TIMESTEP
6000
ITEM: NUMBER OF ATOMS
2000
ITEM: BOX BOUNDS pp pp ff
0 40
0 40
0 42
ITEM: ATOMS id type q xu yu zu 
911 2 0 3.99383 3.94741 1.00482 
912 2 0 5.11959 5.44744 1.36321 
913 2 0 5.94951 5.63763 3.13344 
1911 3 -1 4.57796 4.73464 1.13614 
1912 3 -1 5.71716 5.71188 2.21085 
1913 3 -1 5.6239 5.65845 4.09949 
811 2 0 0.139639 3.94726 1.02138 
923 2 0 4.65066 4.8654 2.20519 
1199 2 0 9.33257 40.403 11.3731 
840 2 0 -2.79716 10.3598 3.31283 
1840 3 -1 -3.43628 11.0687 2.97451 
1839 3 -1 -1.75453 10.4723 3.16866 
2359 3 -1 9.29078 19.8132 5.22978 
1922 3 -1 4.16778 5.67275 1.70715 
1923 3 -1 4.89094 4.55154 3.16752 
1011 2 0 8.0105 4.26359 1.05422 
1012 2 0 8.59227 6.09359 1.08231 
2011 3 -1 8.32314 5.18248 0.955585 
1104 2 0 12.3093 1.74261 6.0434 
1103 2 0 12.7575 1.25943 4.16719 
2102 3 -1 12.3858 1.41838 3.27588 
2104 3 -1 12.0163 2.61866 6.35354 
1105 2 0 11.7 3.01035 7.14945 
2103 3 -1 12.7064 1.47483 5.16604 
1111 2 0 11.7447 4.09923 0.984739 
1112 2 0 13.0552 3.18518 2.20374 
1113 2 0 13.6217 1.39516 2.53054 
1211 2 0 16.0554 4.13418 0.905647 
2111 3 -1 12.4203 3.79092 1.67856 
2112 3 -1 13.2854 2.31311 2.41659 
2211 3 -1 16.2543 3.39617 1.38694 
1223 2 0 15.5402 8.0951 3.90377 
2222 3 -1 16.0631 8.52011 3.30658 
2223 3 -1 15.3735 7.2323 4.35374 
1102 2 0 12.0599 0.940822 2.40199 
1555 2 0 28.498 19.1285 6.83033 
2320 3 -1 20.6046 5.04602 5.6214 
2319 3 -1 20.4006 5.43063 3.98138 
1320 2 0 20.4197 5.60963 4.93046 
1554 2 0 28.0361 18.8373 5.10948 
1212 2 0 15.9359 2.43213 1.33443 
2212 3 -1 15.5458 1.60732 1.4373 
1213 2 0 15.2326 0.773629 1.70144 
1311 2 0 19.6262 4.21628 1.00073 
1312 2 0 19.5522 3.10959 2.39602 
1313 2 0 17.9636 2.42372 1.96315 
2311 3 -1 19.4066 4.13739 1.96869 
2312 3 -1 18.815 2.51145 2.44376 
2313 3 -1 17.0797 2.16022 2.24264 
2303 3 -1 20.8087 1.56186 5.07169 
1304 2 0 21.1803 1.97751 5.86433 
1303 2 0 20.3606 1.60707 4.20104 
1412 2 0 23.7217 3.82492 2.95399 
1413 2 0 23.7217 2.96533 4.50775 
2412 3 -1 23.8629 3.71763 3.92601 
2413 3 -1 23.1241 2.4416 5.077 
2301 3 -1 20.244 0.804153 1.39191 
1201 2 0 15.7913 0.0755085 0.988071 
1329 2 0 23.6612 8.56369 6.28436 
1330 2 0 23.2552 9.25273 4.62949 
2329 3 -1 23.4203 8.661 5.29572 
1302 2 0 20.2654 1.00453 2.33817 
2330 3 -1 23.1527 8.9179 3.71111 
2302 3 -1 20.4172 1.44124 3.24608 
999 2 0 3.74933 40.7685 9.93996 
1411 2 0 23.807 4.06428 1.05689 
1511 2 0 27.95 4.10251 1.04635 
2411 3 -1 23.7385 3.78756 1.96751 
2511 3 -1 26.9831 4.24504 1.19925 
2512 3 -1 26.6679 3.50387 2.98212 
1512 2 0 26.5278 3.83163 1.95395 
1513 2 0 27.2837 3.35152 3.78016 
2590 3 -1 31.2334 43.4552 6.51049 
2401 3 -1 23.7625 0.110116 1.95829 
1455 2 0 19.5012 19.8892 5.08995 
2553 3 -1 27.5464 18.7858 4.31727 
1611 2 0 31.8042 3.99856 0.950494 
1612 2 0 31.2279 5.05896 2.38895 
2611 3 -1 31.5409 4.65995 1.56157 
2612 3 -1 31.3527 4.81653 3.32686 
2795 3 -1 33.3519 42.375 4.46368 
1795 2 0 33.7358 41.7948 3.80734 
2508 3 -1 36.9221 0.148301 7.94921 
1613 2 0 30.9463 4.50695 4.25601 
1969 3 -1 6.61645 17.9453 10.1152 
1297 2 0 15.7505 40.6617 8.01266 
1552 2 0 27.0407 18.5864 2.14301 
1811 3 -1 0.536298 4.70382 1.54359 
812 2 0 0.889866 5.44572 2.0112 
813 2 0 0.421716 6.75705 2.95363 
1812 3 -1 0.602474 6.3844 2.00213 
1711 2 0 36.2293 4.11739 1.0123 
1712 2 0 36.9402 5.74412 1.81677 
1713 2 0 37.0567 6.52929 3.46311 
2711 3 -1 36.5237 5.00088 1.33328 
2712 3 -1 36.9548 6.25564 2.55282 
1703 2 0 35.5508 2.56804 3.66679 
2703 3 -1 35.3309 2.57997 4.60903 
1704 2 0 34.791 2.77137 5.41784 
2713 3 -1 37.427 7.20745 4.06723 
2723 3 -1 33.8453 8.26475 4.69738 
1588 2 0 28.3132 40.1822 6.65702 
1353 2 0 17.1201 19.5088 2.99529 
1968 3 -1 5.35435 18.6254 8.68895 
1724 2 0 33.6829 8.40229 5.63131 
2702 3 -1 35.8714 2.19479 2.81951 
823 2 0 1.68904 6.73425 3.72131 
822 2 0 1.29655 8.08342 2.46876 
831 2 0 -0.0548742 12.0921 0.991328 
921 2 0 4.31478 8.30707 1.07247 
931 2 0 4.29013 11.855 1.01359 
1921 3 -1 4.00586 7.47116 1.01462 
1931 3 -1 4.35989 11.6631 1.89807 
1821 3 -1 0.675603 8.03013 1.7449 
922 2 0 3.90917 6.57566 1.28533 
1823 3 -1 2.25989 6.14721 4.24056 
1822 3 -1 1.72874 7.45627 3.13242 
949 2 0 2.29788 9.8607 1.33755 
1950 3 -1 -0.45359 9.65353 1.1085 
1949 3 -1 1.41276 10.0509 1.33079 
950 2 0 0.504195 9.68322 1.22718 
1833 3 -1 0.744909 12.5278 4.1839 
832 2 0 -0.196313 13.6476 2.00687 
833 2 0 0.539296 13.2836 3.54152 
1831 3 -1 -0.0860163 12.9231 1.40217 
1832 3 -1 0.253974 14.0204 2.83894 
821 2 0 0.0522338 8.0923 0.967272 
932 2 0 4.524 11.7292 2.78581 
933 2 0 3.85003 11.7877 4.65212 
1932 3 -1 4.32327 11.6203 3.71355 
948 2 0 3.64035 9.3773 2.52897 
1947 3 -1 4.24475 8.4953 2.41451 
1948 3 -1 2.90139 9.46986 1.93524 
2101 3 -1 11.715 0.680547 1.58842 
824 2 0 2.96761 6.61442 4.82775 
2020 3 -1 5.73012 9.7863 4.96957 
1013 2 0 9.87514 7.43878 1.16137 
2012 3 -1 9.12853 6.86416 1.0442 
2013 3 -1 10.6833 7.71626 1.84382 
2022 3 -1 9.05853 8.70552 3.6794 
2023 3 -1 9.30864 8.41954 5.51771 
1014 2 0 11.1738 8.41557 2.28387 
1022 2 0 8.83613 8.5127 2.7477 
1023 2 0 9.33146 8.88302 4.62718 
2032 3 -1 7.89344 13.6469 3.44757 
1021 2 0 8.0001 7.92615 0.966252 
1031 2 0 8.09229 12.1145 0.95734 
1032 2 0 8.10273 13.3132 2.50044 
2021 3 -1 8.42256 8.22908 1.88573 
2031 3 -1 7.98969 13.0358 1.57771 
1033 2 0 7.5646 13.4087 4.33864 
2122 3 -1 11.476 7.90416 3.79382 
1123 2 0 11.2408 7.67255 4.67255 
1015 2 0 12.4008 9.69641 2.30167 
2014 3 -1 11.8288 8.97359 2.68377 
2015 3 -1 12.2102 10.5542 2.74096 
1829 3 -1 7.4867 14.3824 7.91703 
829 2 0 6.95562 13.5754 7.83167 
1828 3 -1 6.63249 12.8201 7.4078 
1016 2 0 11.9001 11.2837 3.28751 
2016 3 -1 11.4509 12.0675 3.64009 
1017 2 0 10.5623 12.4957 3.57263 
2017 3 -1 9.60976 12.2771 3.16693 
1019 2 0 8.21522 9.90224 3.58507 
1018 2 0 9.21591 11.4544 3.16652 
2018 3 -1 8.8432 10.562 3.27336 
2019 3 -1 7.52972 9.55528 4.10807 
1020 2 0 6.57389 9.48451 4.49398 
2033 3 -1 7.58126 12.9115 5.16414 
2131 3 -1 12.8423 12.5745 1.41022 
1122 2 0 11.8076 7.81598 2.89177 
2121 3 -1 11.9859 7.82445 1.91123 
1132 2 0 13.0887 13.1011 2.1397 
1121 2 0 12.3067 7.74727 0.99149 
1131 2 0 12.025 12.2156 0.946538 
1221 2 0 15.7506 8.28779 1.03456 
1222 2 0 16.3654 8.99497 2.41796 
1231 2 0 15.776 12.3042 0.910392 
1232 2 0 14.6963 12.4019 2.04294 
1233 2 0 14.7969 12.3405 4.04981 
2221 3 -1 16.1327 9.03668 1.39986 
2231 3 -1 14.846 12.3515 1.02088 
2232 3 -1 14.7181 12.3071 3.05257 
2233 3 -1 14.3534 11.98 4.9549 
1133 2 0 13.0858 14.3636 3.58818 
2133 3 -1 13.058 15.0129 4.33473 
1323 2 0 17.572 7.96365 3.57022 
2323 3 -1 16.9008 8.23844 4.40516 
2322 3 -1 18.1429 8.37209 2.92998 
1321 2 0 19.8495 8.04599 0.909674 
1322 2 0 18.8503 8.32476 2.21451 
1331 2 0 19.8993 11.8326 1.03728 
1332 2 0 19.2132 12.9037 2.36967 
1333 2 0 18.7669 12.1016 3.90804 
2321 3 -1 19.1629 8.47564 1.33311 
2331 3 -1 19.4974 12.5414 1.47852 
2332 3 -1 18.6449 12.5886 3.04785 
2333 3 -1 19.0592 11.3479 4.42749 
2328 3 -1 22.9746 8.0212 6.766 
1328 2 0 22.381 7.68151 7.48002 
1970 3 -1 7.35702 16.599 11.3066 
2327 3 -1 21.8203 8.06364 8.17119 
1334 2 0 19.5945 10.6417 4.88235 
1422 2 0 24.1802 6.97145 2.38702 
1423 2 0 25.0337 7.03088 4.25222 
1522 2 0 26.8505 8.35497 1.55641 
2422 3 -1 24.7156 6.92733 3.2025 
2522 3 -1 26.6168 8.73806 2.41358 
1432 2 0 22.8851 11.8846 2.45381 
1421 2 0 24.1241 8.1612 1.0279 
1431 2 0 23.9996 11.6912 0.947715 
1433 2 0 22.9402 12.2018 4.19824 
1521 2 0 28.1972 7.97413 0.935911 
1531 2 0 28.248 11.9218 0.972139 
2421 3 -1 23.7875 7.16199 1.36966 
2431 3 -1 23.3759 11.4749 1.70287 
2432 3 -1 23.1886 12.0326 3.32056 
2521 3 -1 27.2457 7.69123 1.13957 
2433 3 -1 22.6368 12.1422 5.14528 
1523 2 0 26.2556 8.91386 3.26691 
2334 3 -1 20.257 10.0968 5.40446 
2531 3 -1 28.2767 11.4502 1.91112 
2523 3 -1 26.2937 8.80627 4.20324 
1443 2 0 21.6359 14.2075 2.95847 
2443 3 -1 21.0651 14.1173 3.70179 
1327 2 0 21.1502 7.88148 8.80061 
1434 2 0 22.2462 12.3348 6.12421 
1623 2 0 32.6614 6.83793 4.24438 
2622 3 -1 31.9965 6.8021 3.53483 
2623 3 -1 33.2116 6.90306 5.06883 
1621 2 0 31.7216 7.95677 1.00724 
1622 2 0 31.925 7.05236 2.54916 
1631 2 0 31.9105 12.1882 1.01778 
1632 2 0 30.7836 12.6591 2.51287 
2621 3 -1 31.4977 7.52302 1.85568 
2631 3 -1 31.4597 12.5519 1.83851 
2632 3 -1 30.1083 12.1035 3.00744 
1532 2 0 28.4687 11.1777 2.90914 
1533 2 0 29.4616 10.661 4.3889 
2532 3 -1 29.1129 10.7396 3.47672 
1634 2 0 28.9446 13.0925 5.17719 
1635 2 0 28.1171 14.5098 5.47758 
2634 3 -1 28.6577 13.8195 5.75997 
1733 2 0 39.3565 12.2929 3.16424 
2732 3 -1 38.7236 12.2832 2.43423 
1721 2 0 35.8556 8.1822 0.977546 
1722 2 0 34.4331 7.54172 2.20507 
1723 2 0 33.9311 7.84763 3.88986 
1731 2 0 36.3812 11.69 0.933885 
2721 3 -1 35.1851 7.58611 1.3885 
2722 3 -1 34.4452 7.47162 3.22557 
2731 3 -1 37.3129 11.8653 1.1384 
1732 2 0 38.2947 12.1979 1.66454 
2296 3 -1 16.3133 40.2425 7.30108 
941 2 0 4.22794 15.8502 0.983299 
942 2 0 4.99025 14.1926 1.21682 
1941 3 -1 4.77767 15.0596 1.1085 
1942 3 -1 5.39237 13.5065 1.83116 
943 2 0 5.66157 12.6176 2.08417 
1841 3 -1 0.00180593 15.4313 1.74104 
842 2 0 0.136833 15.3344 2.76708 
1842 3 -1 0.0294477 15.4791 3.75117 
853 2 0 -3.07002 19.4233 2.20279 
843 2 0 -0.20816 15.2901 4.68278 
2557 3 -1 26.2995 18.0915 10.2998 
1945 3 -1 6.71718 7.91698 1.65919 
946 2 0 6.49318 7.14945 2.17617 
1946 3 -1 5.59314 7.07484 2.52969 
1944 3 -1 6.40009 9.83335 1.91484 
945 2 0 6.66682 8.90327 1.72713 
1509 2 0 37.6922 0.722993 7.50863 
2140 3 -1 5.52083 16.8769 2.76567 
1943 3 -1 6.18126 11.7659 2.23873 
944 2 0 6.2374 10.7665 1.97753 
830 2 0 7.19004 14.8109 8.74123 
1830 3 -1 6.54228 14.7663 9.41761 
947 2 0 4.70259 7.60293 2.45076 
1041 2 0 7.91194 15.6541 1.02148 
1042 2 0 8.85691 16.4653 2.39444 
1043 2 0 10.0683 16.2641 3.77176 
2041 3 -1 8.48676 16.2552 1.54094 
2042 3 -1 9.30335 16.6645 3.42972 
2136 3 -1 11.2543 18.4294 4.39787 
2139 3 -1 7.25646 17.2268 1.98084 
1140 2 0 6.36296 17.0418 2.42374 
1137 2 0 10.8439 18.0652 3.60073 
2137 3 -1 10.4286 17.7814 2.80017 
1138 2 0 9.6581 17.5149 2.16357 
2420 3 -1 21.8484 0.940883 15.4382 
2132 3 -1 13.2306 13.8526 2.83224 
1135 2 0 13.0802 17.476 5.702 
1136 2 0 11.9412 18.6703 4.96722 
2135 3 -1 12.7084 18.3465 5.68514 
1134 2 0 13.1417 16.0003 4.76338 
2134 3 -1 13.0043 16.5288 5.44905 
1141 2 0 12.2629 15.7676 1.06263 
1142 2 0 13.5901 15.4494 2.04075 
1143 2 0 14.0983 15.0942 3.29809 
1241 2 0 16.4125 16.2459 0.917002 
2141 3 -1 12.9198 15.2461 1.43123 
2142 3 -1 14.3363 15.7553 2.67786 
2241 3 -1 16.5311 17.0309 1.58067 
1242 2 0 17.1618 17.5982 2.05566 
1243 2 0 18.2362 18.2096 3.39377 
2242 3 -1 17.6296 18.1554 2.61573 
2143 3 -1 14.0316 14.94 4.27397 
1144 2 0 14.5627 14.4782 4.86746 
2144 3 -1 15.3426 14.4864 5.3603 
2360 3 -1 7.68791 19.211 4.53691 
1503 2 0 31.3034 0.14309 2.71792 
2755 3 -1 35.589 19.8762 5.07772 
2249 3 -1 19.6205 13.3604 8.45507 
1341 2 0 20.0758 15.9151 0.994542 
1342 2 0 19.2746 16.8167 2.30545 
1343 2 0 18.9936 16.1268 4.18614 
2341 3 -1 19.4276 16.4811 1.45258 
2342 3 -1 18.9496 16.6736 3.22178 
1109 2 0 11.3782 1.84353 12.2959 
2343 3 -1 18.8222 15.7509 5.04057 
2450 3 -1 24.4123 17.0258 9.47384 
1967 3 -1 5.10097 19.6363 7.44596 
1544 2 0 25.7272 15.602 5.87616 
2444 3 -1 21.3166 15.0436 5.30567 
1441 2 0 24.2378 16.1024 1.028 
1442 2 0 23.1656 14.9825 2.15526 
1541 2 0 27.8949 15.8827 1.00454 
2441 3 -1 23.7834 15.425 1.54326 
2442 3 -1 22.5595 14.4907 2.70811 
2541 3 -1 27.4828 16.1996 1.83888 
2542 3 -1 26.8769 16.6727 3.42297 
1444 2 0 21.0227 14.4175 4.58973 
1542 2 0 27.0223 16.6657 2.45659 
1543 2 0 26.5519 16.097 4.2485 
2543 3 -1 26.1896 15.6943 5.04292 
2240 3 -1 9.34421 8.29212 14.1277 
1633 2 0 29.6657 12.1174 3.87112 
2633 3 -1 29.2087 12.4352 4.59454 
1641 2 0 32.4016 15.8121 1.07264 
1642 2 0 32.8212 17.6692 1.74484 
1643 2 0 31.5434 18.1152 2.89524 
2641 3 -1 32.828 16.7633 1.17372 
2642 3 -1 31.9763 17.5988 2.23293 
1742 2 0 37.2393 15.7124 2.21054 
2742 3 -1 37.8447 15.3332 2.90169 
1401 2 0 23.8621 0.32446 0.933398 
1853 3 -1 -3.6832 19.1791 2.83479 
1743 2 0 38.541 15.2896 3.5333 
841 2 0 -0.288277 16.0107 1.00305 
1556 2 0 28.499 18.7053 8.71371 
854 2 0 -4.01543 18.9518 3.82058 
1741 2 0 35.9252 15.9847 0.976166 
2741 3 -1 36.4792 15.9288 1.75473 
1843 3 -1 -0.327403 15.6404 5.52847 
1855 3 -1 -4.68417 19.2383 6.5824 
1744 2 0 38.2293 14.6853 5.33446 
2743 3 -1 38.3562 14.887 4.39398 
856 2 0 -4.56076 18.3605 7.04497 
1854 3 -1 -4.6393 18.9686 4.55314 
855 2 0 -4.80241 19.2226 5.60043 
2352 3 -1 18.0341 19.6102 2.65536 
1856 3 -1 -4.72307 17.4749 6.84396 
2520 3 -1 28.0134 1.43833 13.1004 
1999 3 -1 3.79121 41.5701 9.38497 
2109 3 -1 10.7093 1.19778 12.0771 
1915 3 -1 6.57187 5.26407 7.65528 
915 2 0 6.05601 5.39889 6.81202 
1916 3 -1 7.46958 3.9284 8.72123 
916 2 0 7.183 4.75838 8.38912 
924 2 0 4.97961 3.93547 3.91238 
1924 3 -1 5.21855 3.77359 4.84087 
925 2 0 5.30494 3.78512 5.80554 
926 2 0 4.52058 4.1669 7.52887 
1925 3 -1 4.74572 4.11781 6.61322 
2190 3 -1 13.2594 40.5789 11.5609 
2458 3 -1 21.5959 19.0438 10.3231 
1838 3 -1 -0.0558232 10.2222 2.15955 
839 2 0 -0.970684 10.1756 2.69528 
2405 3 -1 25.0052 0.72273 7.87968 
1110 2 0 9.95431 0.717233 12.4705 
808 2 0 1.86821 0.696591 11.2255 
1808 3 -1 1.9214 1.5339 11.663 
1406 2 0 24.9772 1.29804 8.61447 
1957 3 -1 2.94804 19.4805 6.84434 
2393 3 -1 20.1071 40.4024 3.1907 
838 2 0 0.830213 10.4732 2.45041 
914 2 0 5.37694 5.74822 5.08745 
1210 2 0 16.385 1.52172 10.9926 
1300 2 0 14.1013 43.6075 7.61311 
2299 3 -1 13.7442 42.7372 7.79366 
1299 2 0 13.8774 41.9675 8.48975 
2298 3 -1 13.8519 41.1982 9.14723 
2300 3 -1 14.077 44.352 6.90539 
1106 2 0 11.6097 4.5518 8.15393 
869 2 0 3.48745 18.7157 4.20155 
1914 3 -1 5.64649 5.95282 6.01504 
1870 3 -1 5.41766 16.7267 4.19811 
2107 3 -1 11.4076 4.14009 10.954 
2210 3 -1 15.9225 2.37692 10.6012 
2105 3 -1 11.8023 3.62604 7.83473 
2794 3 -1 34.5462 41.335 3.57335 
1006 2 0 8.23865 0.816906 8.00446 
1108 2 0 11.7429 3.40231 11.4494 
1107 2 0 11.4009 4.71209 10.135 
2106 3 -1 11.5267 4.7912 9.10874 
2108 3 -1 11.6681 2.65799 11.9837 
1298 2 0 14.5785 40.6696 9.54062 
1589 2 0 29.4189 41.5883 7.14153 
2454 3 -1 19.5065 19.5109 4.25365 
2317 3 -1 17.2963 5.08992 2.73121 
2316 3 -1 16.2919 3.45339 3.68309 
1317 2 0 16.8038 4.29303 3.2016 
1352 2 0 18.8933 19.5361 2.26923 
2297 3 -1 15.1868 40.7278 8.77577 
1225 2 0 15.4181 4.69084 4.89988 
1224 2 0 14.9939 6.42141 4.62497 
2224 3 -1 15.0769 5.51313 4.58941 
1318 2 0 18.2226 5.12186 2.65557 
1319 2 0 19.9032 4.99909 3.28395 
2318 3 -1 19.0524 4.70947 2.9569 
2459 3 -1 21.5442 17.4055 9.63254 
1551 2 0 27.8765 19.791 0.922238 
1314 2 0 16.4118 1.39366 2.50414 
1315 2 0 15.3491 1.35424 3.91692 
2314 3 -1 15.8208 1.07306 3.11811 
2315 3 -1 15.3157 2.12806 4.44108 
1316 2 0 16.0895 2.85388 4.37192 
1305 2 0 21.3781 3.47212 6.93613 
2305 3 -1 21.6751 4.10944 7.58446 
1306 2 0 21.2659 4.11381 8.37822 
2306 3 -1 21.0835 4.37381 9.24982 
1307 2 0 20.3751 4.18714 9.83396 
2304 3 -1 21.3472 2.6207 6.4975 
1414 2 0 22.8732 1.87812 5.89032 
2414 3 -1 23.3348 1.75419 6.713 
1415 2 0 23.5229 1.06941 7.48333 
2415 3 -1 23.8202 0.540046 8.35761 
2756 3 -1 33.7142 20.0441 5.31803 
1417 2 0 23.2622 0.632672 10.7112 
1868 3 -1 2.97746 19.5546 4.24735 
2513 3 -1 27.393 3.18997 4.74024 
2426 3 -1 26.9719 5.42276 10.319 
1516 2 0 27.1286 3.28653 8.79288 
2515 3 -1 27.557 3.56165 7.92135 
2516 3 -1 26.7725 2.87122 9.61211 
1514 2 0 27.3354 3.80452 5.35139 
1515 2 0 27.519 3.32783 7.03594 
2514 3 -1 27.4954 4.08656 6.27417 
1558 2 0 25.7208 18.6524 10.8418 
1408 2 0 25.171 0.459274 11.8107 
1869 3 -1 3.87572 17.8998 4.02936 
1427 2 0 26.7321 5.75769 11.145 
2407 3 -1 25.2335 0.685677 10.7755 
1407 2 0 24.9284 1.51313 10.2852 
2406 3 -1 25.1418 0.991629 9.49535 
1796 2 0 32.783 42.7353 5.25501 
2796 3 -1 32.6514 42.4973 6.12317 
1797 2 0 32.3211 41.9705 7.00504 
2701 3 -1 35.8146 0.717709 1.47099 
2613 3 -1 30.568 4.50657 5.08249 
1614 2 0 30.3097 5.19711 5.72847 
1615 2 0 29.5343 6.0807 7.2965 
2614 3 -1 29.6587 5.58302 6.41031 
1616 2 0 28.4034 5.44964 8.92059 
2616 3 -1 28.557 5.03468 9.69957 
1590 2 0 30.4678 43.252 6.99448 
2460 3 -1 23.0989 17.01 8.44628 
2650 3 -1 30.5915 15.3893 15.8199 
2704 3 -1 34.4045 3.18952 6.27254 
2680 3 -1 38.2955 19.6776 8.11516 
2797 3 -1 32.0565 41.1953 7.74876 
815 2 0 -0.613976 5.51526 6.3911 
1813 3 -1 0.457285 6.29732 3.82098 
814 2 0 0.172296 5.93402 4.64449 
1705 2 0 34.3962 3.44938 7.18185 
2705 3 -1 34.4364 4.05963 7.94359 
1706 2 0 34.264 4.39966 8.8357 
1714 2 0 37.3657 7.86332 4.77055 
2714 3 -1 37.2287 8.48659 5.58475 
1815 3 -1 -0.675441 5.11029 7.21763 
816 2 0 -0.988425 4.77362 8.12549 
2615 3 -1 29.0564 5.94901 8.2473 
817 2 0 -1.72145 4.39221 9.86034 
1814 3 -1 -0.299364 5.69601 5.47265 
1816 3 -1 -1.36246 4.52842 8.95043 
1817 3 -1 -2.4851 4.52272 10.4766 
917 2 0 7.74585 3.07042 9.37499 
1825 3 -1 4.18007 8.9936 5.35931 
826 2 0 4.66084 9.48809 6.07173 
1933 3 -1 3.67622 12.6685 5.1762 
825 2 0 3.85677 8.17269 4.82621 
1824 3 -1 3.78131 7.19645 5.01484 
1826 3 -1 5.07674 9.73762 6.86952 
827 2 0 5.70936 10.4787 7.02096 
1926 3 -1 4.28817 4.62349 8.40818 
1835 3 -1 3.28079 10.4599 5.45051 
836 2 0 3.78989 10.1016 4.57861 
1836 3 -1 3.17743 9.75576 3.82872 
927 2 0 3.7682 4.45012 9.23062 
837 2 0 2.55819 9.82313 3.03271 
1719 2 0 40.9224 7.95223 12.0929 
834 2 0 1.10983 11.7066 4.61949 
835 2 0 2.56562 11.0553 5.3825 
1834 3 -1 1.68606 11.072 5.11664 
2123 3 -1 10.8933 6.85653 4.88359 
1024 2 0 8.88669 8.49696 6.36345 
2025 3 -1 9.52501 10.0032 8.58455 
1026 2 0 9.02806 10.7113 9.06568 
1025 2 0 9.30165 9.33037 7.93358 
2026 3 -1 8.56407 10.3044 9.74695 
828 2 0 6.91286 11.8478 7.03567 
1827 3 -1 6.62557 10.9584 6.97506 
2024 3 -1 8.93417 8.93308 7.18153 
2125 3 -1 8.83571 5.74286 7.71367 
1124 2 0 10.1009 6.77219 5.5819 
2124 3 -1 9.36072 6.64064 6.13392 
1125 2 0 8.71437 6.26754 6.85221 
1034 2 0 7.52359 12.4075 5.96274 
1035 2 0 8.35289 10.812 6.86759 
2034 3 -1 7.83417 11.5162 6.40948 
2035 3 -1 9.04119 10.3224 7.13599 
1036 2 0 9.75862 9.71196 7.1745 
2036 3 -1 10.1902 8.86276 7.42217 
1126 2 0 8.61893 5.09495 8.32077 
1234 2 0 14.0006 11.6975 5.84865 
2503 3 -1 32.0714 0.0731851 3.36167 
2225 3 -1 15.6841 4.14149 5.71692 
1226 2 0 15.9838 4.49292 6.54836 
2226 3 -1 15.7387 4.41531 7.48641 
1227 2 0 15.7976 4.54669 8.37987 
2227 3 -1 15.6675 5.1143 9.16514 
2347 3 -1 16.6294 11.8461 6.76627 
1235 2 0 14.4161 11.9198 7.76202 
2234 3 -1 13.9499 12.0326 6.9286 
2235 3 -1 14.7695 11.4602 8.49084 
1236 2 0 14.8827 10.9569 9.30352 
1228 2 0 15.4486 5.71303 9.92282 
1348 2 0 16.0441 11.053 6.65462 
1347 2 0 16.9886 12.8029 7.07467 
2348 3 -1 15.6541 10.4657 7.22979 
2324 3 -1 17.4696 8.7092 6.14951 
1324 2 0 17.2375 8.44415 5.28754 
1325 2 0 18.0839 8.26145 6.71437 
2325 3 -1 18.9634 8.10418 7.17601 
1335 2 0 20.8708 10.173 6.28746 
1530 2 0 20.1989 3.16004 12.2137 
2350 3 -1 12.6791 9.57149 9.0917 
1529 2 0 21.0151 4.35401 11.0371 
2529 3 -1 20.811 3.47908 11.3307 
2335 3 -1 21.0123 10.9867 6.88073 
1336 2 0 21.6985 11.216 7.56515 
2336 3 -1 21.9962 11.4293 8.52672 
1435 2 0 22.0689 12.4263 7.94709 
2528 3 -1 21.3212 5.16852 10.5467 
2236 3 -1 14.5825 10.7333 10.1322 
1346 2 0 17.9541 13.9386 8.40966 
2346 3 -1 17.401 13.3122 7.75924 
1337 2 0 22.3352 11.2066 9.45657 
2337 3 -1 23.1841 11.0161 9.95859 
1349 2 0 15.0108 9.92986 7.73786 
1350 2 0 13.7188 9.64595 8.91556 
2349 3 -1 14.3395 9.52046 8.25885 
1326 2 0 19.8255 8.28174 7.50941 
2423 3 -1 24.99 7.22257 5.20175 
1524 2 0 26.5372 8.06146 4.86494 
1426 2 0 26.8831 5.74322 9.4484 
1425 2 0 26.0859 6.28083 7.72785 
2425 3 -1 26.7008 5.94913 8.46243 
2326 3 -1 20.4997 7.99104 8.03767 
1424 2 0 25.2466 6.83156 6.14628 
2435 3 -1 21.9834 12.7012 8.866 
2424 3 -1 25.7265 6.34166 6.81412 
2434 3 -1 22.479 12.3633 7.05143 
2527 3 -1 22.1771 6.51779 9.49855 
1528 2 0 21.895 5.71162 9.9604 
1525 2 0 25.6417 7.70288 6.48103 
2524 3 -1 26.3671 7.77919 5.83772 
1526 2 0 24.4477 7.18515 8.05078 
2526 3 -1 24.0663 6.66647 8.84685 
1527 2 0 23.1705 6.74654 9.23525 
2525 3 -1 25.0255 7.47207 7.25896 
2545 3 -1 26.3708 15.4001 8.4771 
1436 2 0 22.3625 13.4974 9.22968 
2533 3 -1 29.938 10.7833 5.19972 
1534 2 0 30.1961 11.1835 6.11812 
1638 2 0 28.8146 16.4691 8.39932 
1637 2 0 27.0037 16.6852 8.10692 
2637 3 -1 27.8426 16.6361 8.5417 
1624 2 0 32.6671 7.12903 5.94221 
2624 3 -1 32.2108 6.87133 6.89686 
1626 2 0 32.057 8.05642 8.91192 
2626 3 -1 32.8081 8.5113 9.25638 
1625 2 0 31.7994 6.63809 7.7009 
2625 3 -1 31.7555 7.25403 8.52136 
2636 3 -1 26.9488 16.0984 7.32637 
2534 3 -1 30.1583 11.3236 7.04414 
1535 2 0 30.391 11.1738 8.05246 
2635 3 -1 27.7588 15.399 5.74698 
1636 2 0 27.1419 15.707 6.45391 
2535 3 -1 30.2268 11.3493 9.05391 
1536 2 0 29.8939 11.7487 9.97188 
2536 3 -1 29.333 11.9525 10.6706 
1715 2 0 37.4524 8.89911 6.41659 
2351 3 -1 19.2347 19.5898 1.26948 
2715 3 -1 37.9813 9.38466 7.06477 
1708 2 0 37.2867 5.82152 10.8561 
2707 3 -1 36.5031 5.24476 10.4317 
1709 2 0 39.1661 6.35454 11.1456 
2708 3 -1 38.3088 6.16055 11.0564 
1409 2 0 24.8231 0.00164435 13.7583 
1837 3 -1 1.73678 10.3751 2.79544 
1707 2 0 35.5714 5.19067 10.001 
2706 3 -1 34.8756 4.6297 9.57161 
2725 3 -1 33.8488 9.27195 8.12487 
1726 2 0 33.3944 9.7094 8.83071 
2726 3 -1 33.1735 10.2981 9.47207 
1725 2 0 34.1963 9.22905 7.26254 
2724 3 -1 33.9761 8.99513 6.32493 
1727 2 0 33.2795 10.1138 10.409 
2733 3 -1 39.7055 11.6715 3.75981 
1734 2 0 40.1112 11.0229 4.37108 
2734 3 -1 40.5142 10.7309 5.22845 
1735 2 0 40.4214 11.421 6.03276 
2735 3 -1 40.3998 11.8287 6.87834 
1716 2 0 38.4013 9.80752 7.84191 
1717 2 0 39.3167 9.8585 9.47511 
2716 3 -1 38.832 10.0187 8.68762 
2717 3 -1 39.7329 9.31009 10.0892 
1718 2 0 39.8934 8.82945 10.8382 
2718 3 -1 40.3913 8.18824 11.4261 
2727 3 -1 33.865 10.3524 11.1108 
2728 3 -1 33.7644 10.8779 12.9338 
1737 2 0 39.7792 11.9551 9.71402 
2737 3 -1 39.8604 11.9243 10.5842 
1728 2 0 33.5634 10.5466 12.0413 
1738 2 0 39.4334 11.9486 11.4681 
2738 3 -1 38.8905 12.0581 12.2622 
2555 3 -1 28.6453 19.0447 7.84517 
934 2 0 4.32646 13.1773 5.79434 
936 2 0 6.60028 12.5957 8.54844 
1936 3 -1 7.52905 12.5894 8.51687 
1934 3 -1 4.46738 13.3475 6.81618 
935 2 0 5.17116 13.3725 7.51786 
1935 3 -1 5.6517 13.0033 8.361 
2250 3 -1 20.832 14.701 7.54633 
1846 3 -1 -1.36613 14.6082 9.91774 
1958 3 -1 1.3669 19.3167 6.04241 
958 2 0 2.15954 19.5818 6.36091 
2720 3 -1 42.8298 9.5187 12.2198 
1720 2 0 42.106 8.99106 12.532 
2719 3 -1 41.5721 8.26246 12.7697 
1847 3 -1 -1.56747 13.9237 11.7488 
848 2 0 -0.796609 14.1405 12.5578 
1794 2 0 34.492 40.7296 2.83785 
1416 2 0 24.2253 0.354513 9.18215 
1190 2 0 14.0351 40.1314 11.4455 
847 2 0 -1.59045 14.2581 10.7805 
959 2 0 0.587494 19.7848 5.87692 
2043 3 -1 10.7593 15.7364 4.111 
2417 3 -1 23.6284 0.544996 11.6146 
937 2 0 8.53962 12.6102 8.5829 
1937 3 -1 9.36774 12.8767 8.99203 
1044 2 0 10.9981 14.8798 4.42534 
1046 2 0 10.1243 13.58 7.86305 
1045 2 0 10.834 13.8117 6.18031 
2044 3 -1 10.9011 14.2486 5.24485 
2045 3 -1 10.2986 13.452 6.89857 
2046 3 -1 9.82765 13.9159 8.75385 
2138 3 -1 8.84525 17.1612 1.72331 
1148 2 0 14.5114 18.5749 9.85434 
969 2 0 5.88837 18.3008 9.37624 
2243 3 -1 18.8349 18.1067 4.16635 
1146 2 0 14.8754 15.5062 7.88814 
1147 2 0 14.8131 17.0515 8.82556 
2146 3 -1 14.6625 16.2775 8.35974 
2145 3 -1 15.2609 15.2357 7.04893 
1145 2 0 15.5216 14.59 6.40757 
2050 3 -1 11.4131 12.3028 12.7289 
2147 3 -1 14.5843 17.6712 9.54062 
1268 2 0 18.1947 17.9652 11.0221 
2270 3 -1 18.0343 13.6726 11.826 
2269 3 -1 18.0363 15.4998 12.3026 
1270 2 0 17.9376 14.6716 11.7911 
2267 3 -1 17.6205 18.5157 10.4045 
1510 2 0 39.2096 1.87121 7.11419 
2268 3 -1 18.3591 17.226 11.6856 
1244 2 0 18.7467 18.2191 5.07027 
1245 2 0 18.5627 17.8633 6.97023 
2244 3 -1 18.5434 17.9451 5.99658 
2245 3 -1 18.3766 17.8528 7.8732 
1246 2 0 18.3486 17.5142 8.80935 
1344 2 0 18.8289 15.6144 6.03504 
1345 2 0 18.8265 15.1898 7.71611 
2344 3 -1 19.1525 15.7139 6.99444 
2345 3 -1 18.4617 14.6972 8.4281 
2246 3 -1 17.9575 17.1755 9.63801 
870 2 0 4.74358 17.4276 4.09703 
1247 2 0 18.1398 16.3154 10.1178 
1267 2 0 17.2606 19.0622 9.6917 
1549 2 0 24.3985 12.872 13.5817 
1448 2 0 23.3712 19.497 6.81876 
1248 2 0 17.5237 14.5413 9.92979 
1449 2 0 23.4162 19.4125 8.59424 
1445 2 0 21.7489 15.8957 5.13144 
2501 3 -1 28.6261 0.106941 1.73623 
2547 3 -1 25.5529 14.848 12.246 
1547 2 0 25.8235 14.9913 11.1954 
2546 3 -1 26.0617 15.2531 10.274 
1546 2 0 26.143 15.2891 9.35729 
2445 3 -1 22.5433 16.2569 5.29243 
1446 2 0 23.1632 17.0921 5.16275 
1437 2 0 22.5767 15.1954 9.83492 
2436 3 -1 22.5991 14.19 9.88479 
2446 3 -1 23.2763 18.1038 5.19957 
1545 2 0 26.0399 15.3068 7.6194 
2544 3 -1 25.6458 15.1778 6.85194 
1447 2 0 23.7047 19.127 5.16444 
1548 2 0 25.1018 14.1212 12.6453 
2548 3 -1 24.3714 13.5331 12.9285 
2448 3 -1 23.033 19.5256 7.73079 
2437 3 -1 23.0407 16.0595 9.87415 
2247 3 -1 17.8472 15.3905 10.1277 
2447 3 -1 23.655 19.7781 5.97954 
2248 3 -1 18.0169 13.7336 9.70809 
1450 2 0 23.9584 17.8654 9.3697 
2449 3 -1 23.4676 18.7651 9.22949 
1249 2 0 18.7678 13.574 9.0683 
2510 3 -1 40.0453 2.55673 7.46963 
2643 3 -1 30.9294 18.1314 3.65495 
1644 2 0 30.5198 17.8158 4.42969 
1645 2 0 30.2375 17.8143 6.27043 
1646 2 0 29.9176 17.714 8.20448 
2646 3 -1 29.7974 17.1481 9.11181 
2645 3 -1 30.2822 17.8123 7.20826 
2644 3 -1 30.2068 17.7071 5.38135 
1859 3 -1 -6.61873 14.7918 10.0919 
1858 3 -1 -5.31639 15.3424 8.95924 
859 2 0 -6.06676 15.4293 9.5396 
2213 3 -1 15.3701 0.134636 2.45061 
2353 3 -1 16.2281 19.736 3.07684 
1736 2 0 40.4289 12.1146 7.91078 
2736 3 -1 39.8364 12.2519 8.76767 
1844 3 -1 -0.806239 16.2846 7.2341 
844 2 0 -0.377085 16.1715 6.36102 
1745 2 0 37.3662 14.1806 6.9801 
2745 3 -1 37.1332 14.5061 7.80043 
1746 2 0 37.4869 14.3987 8.6966 
1857 3 -1 -4.97346 15.9275 7.28607 
857 2 0 -5.23681 16.7103 6.81583 
2744 3 -1 37.707 14.2576 6.03374 
858 2 0 -4.78202 15.5828 8.2156 
1845 3 -1 -0.475333 16.1856 9.27217 
845 2 0 -0.544744 16.2747 8.24968 
846 2 0 -0.755329 15.3483 9.8739 
1848 3 -1 0.0927851 14.1774 12.9217 
849 2 0 1.1123 14.1695 12.8919 
1849 3 -1 2.01684 14.1716 13.1461 
850 2 0 1.47904 13.8826 13.812 
2746 3 -1 38.0819 15.034 9.11474 
1747 2 0 38.3225 15.7261 9.72498 
2509 3 -1 38.5502 1.0528 7.12828 
810 2 0 1.34466 2.46842 14.2681 
1810 3 -1 0.56655 2.87678 14.8218 
809 2 0 1.88682 1.59935 12.6284 
1809 3 -1 1.72916 2.01579 13.5055 
1751 2 0 35.791 19.9238 1.02332 
1007 2 0 9.3111 1.49473 9.24191 
2008 3 -1 10.1283 3.65632 11.1116 
2793 3 -1 34.0027 40.0129 2.53099 
2040 3 -1 6.41505 8.02661 7.5963 
2554 3 -1 28.1075 18.7213 6.05147 
2009 3 -1 9.92379 5.0964 12.0274 
1059 2 0 8.52876 19.3361 10.7757 
2007 3 -1 9.30773 2.27618 9.89915 
1009 2 0 10.3422 4.3157 11.7241 
1128 2 0 8.33117 5.56601 11.4606 
2127 3 -1 8.337 5.8518 10.5076 
1127 2 0 8.79715 5.53799 9.76137 
1008 2 0 9.91353 2.83811 10.5444 
2006 3 -1 8.87946 1.01341 8.59208 
1010 2 0 10.2848 5.90558 11.6589 
2010 3 -1 10.5479 6.85997 11.7863 
1418 2 0 23.257 0.27237 12.4399 
2128 3 -1 8.35347 6.3027 12.1083 
1130 2 0 8.53371 7.48274 14.4329 
2129 3 -1 8.58777 7.02913 13.4737 
1129 2 0 7.98319 6.8298 12.7863 
2130 3 -1 8.27605 7.51209 15.371 
2307 3 -1 19.8682 3.8072 10.5695 
1308 2 0 19.7203 2.95601 10.9986 
2308 3 -1 19.5757 2.00157 10.8334 
2309 3 -1 18.6479 0.372416 10.9072 
1309 2 0 18.9891 1.28915 10.6476 
1430 2 0 26.0809 9.44562 14.8097 
1702 2 0 35.9961 1.42414 2.05708 
2419 3 -1 21.496 1.04179 13.646 
1419 2 0 22.0413 1.55044 12.9326 
1420 2 0 21.4536 0.734459 14.5608 
2589 3 -1 29.6932 42.4696 6.92579 
2408 3 -1 24.8704 0.38199 12.733 
1428 2 0 26.7209 7.33087 12.092 
2427 3 -1 26.8084 6.51701 11.6497 
2429 3 -1 26.716 9.15174 14.2154 
1429 2 0 26.9818 8.75708 13.3625 
2428 3 -1 26.9886 8.11295 12.5582 
2518 3 -1 25.2572 2.57756 12.4832 
1517 2 0 25.9885 3.05784 10.0971 
2517 3 -1 25.3882 3.01029 10.8231 
1518 2 0 24.9982 2.98843 11.6851 
2558 3 -1 25.4119 19.41 11.3451 
1250 2 0 20.1317 14.098 8.23091 
1618 2 0 31.0505 4.8354 11.071 
1619 2 0 32.5701 3.93713 10.5704 
2618 3 -1 31.9202 4.68722 10.8204 
1617 2 0 29.3686 5.04062 10.3738 
1620 2 0 32.9472 3.33937 12.3864 
2617 3 -1 30.0996 4.84865 10.8833 
1629 2 0 36.1431 8.6626 11.2631 
2629 3 -1 36.5203 7.77857 11.0394 
1628 2 0 34.6048 9.58802 11.082 
2628 3 -1 35.4947 9.36095 11.2986 
2619 3 -1 32.8318 3.56148 11.443 
1819 3 -1 -2.72828 4.70277 13.9608 
1820 3 -1 -1.14896 4.52748 14.9209 
819 2 0 -2.83786 5.28171 13.2664 
820 2 0 -2.0015 4.47862 14.527 
818 2 0 -2.74496 4.85665 11.3688 
1818 3 -1 -2.74537 5.25855 12.2738 
1917 3 -1 8.20482 2.5266 9.93471 
2551 3 -1 27.4365 19.1527 1.53493 
1740 2 0 38.0575 12.2412 14.9353 
1920 3 -1 10.0186 2.7087 14.3383 
2740 3 -1 38.7036 12.5983 15.5135 
1710 2 0 40.7324 7.22123 10.6963 
2710 3 -1 41.2427 7.93876 10.4196 
2709 3 -1 40.0362 6.69428 11.1531 
2418 3 -1 22.5342 0.673078 13.0018 
920 2 0 9.73447 2.58137 13.3547 
1919 3 -1 10.0932 2.25351 12.4052 
918 2 0 8.33499 1.80546 10.5858 
1030 2 0 7.68913 8.3683 15.5997 
2030 3 -1 7.59212 7.78087 16.2892 
919 2 0 9.82732 1.98411 11.4698 
928 2 0 3.7694 5.0433 11.0648 
1927 3 -1 3.71192 4.35294 10.1667 
929 2 0 4.77676 6.36638 11.9164 
1928 3 -1 4.27334 5.83033 11.2839 
1929 3 -1 5.3671 7.0589 12.3423 
930 2 0 6.21552 7.60655 12.8956 
1930 3 -1 6.45127 7.80679 11.9986 
1940 3 -1 14.4981 14.7883 9.39367 
1027 2 0 7.94504 9.84239 10.3867 
2027 3 -1 7.52233 9.27787 11.0788 
940 2 0 13.805 14.1488 9.00199 
2126 3 -1 9.00705 4.8009 9.23043 
1938 3 -1 11.2132 13.5947 9.16828 
938 2 0 10.283 13.0903 9.29137 
2005 3 -1 7.76315 0.162477 7.48496 
1029 2 0 7.10631 8.76776 13.8818 
2028 3 -1 7.1535 8.83701 12.9658 
2029 3 -1 7.31482 8.86193 14.8553 
1028 2 0 7.44217 9.11468 12.041 
1918 3 -1 9.23033 1.72909 10.7749 
1037 2 0 10.3898 7.96751 7.92953 
1038 2 0 8.98469 6.84476 8.89324 
1039 2 0 7.4904 7.79134 9.48441 
2038 3 -1 8.14572 7.04116 9.25591 
2039 3 -1 7.03117 8.57822 9.10309 
2037 3 -1 9.6377 7.43214 8.36273 
939 2 0 11.979 14.0424 9.09361 
1939 3 -1 12.8632 13.971 8.7764 
2113 3 -1 14.1656 0.59748 2.80946 
2530 3 -1 20.0712 2.95813 13.1406 