ITEM: TIMESTEP
101000
ITEM: NUMBER OF ATOMS
48
ITEM: BOX BOUNDS pp pp ff
0 20
0 20
0 62
ITEM: ATOMS id type q x y z 
3203 5 1 10.8599 1.64385 2.01859 
3218 5 1 11.7857 1.66498 2.8715 
3220 5 1 17.7206 1.9184 2.42049 
3201 5 1 18.0404 1.78996 2.9977 
3216 5 1 19.0053 1.31337 3.10731 
3217 5 1 16.5513 5.63845 1.4686 
3214 5 1 4.36183 11.6013 2.48473 
3207 5 1 13.9989 15.2695 1.95687 
3202 5 1 5.37249 16.8419 4.78036 
3224 5 1 7.36916 15.8868 2.99838 
3206 5 1 12.6709 13.958 1.51673 
3215 5 1 11.8077 17.4124 4.02457 
3219 5 1 5.24775 19.7843 1.38502 
3211 5 1 9.9143 19.6153 2.51495 
3213 5 1 8.76972 19.7148 2.32581 
3209 5 1 10.1537 19.4821 3.31228 
3223 5 1 15.5676 16.7055 4.44525 
3208 5 1 18.8622 19.7148 3.10615 
3210 5 1 13.6407 1.71845 3.76635 
3205 5 1 2.39709 12.3922 3.64737 
3221 5 1 12.1054 15.746 3.5918 
3204 5 1 11.943 17.1589 5.04244 
3222 5 1 11.6993 18.9679 4.74885 
3238 6 -1 5.36829 2.68665 15.7535 
3235 6 -1 12.9128 16.2848 20.2938 
3243 6 -1 6.97229 6.65934 16.5355 
3225 6 -1 2.51272 9.05501 18.9827 
3233 6 -1 8.74607 2.51646 28.636 
3236 6 -1 19.2423 5.33027 23.744 
3237 6 -1 18.951 13.3886 22.3543 
3234 6 -1 4.40272 12.5575 34.3565 
3240 6 -1 18.6749 16.6417 44.1254 
3248 6 -1 11.9521 18.1412 31.1458 
3246 6 -1 9.55775 5.73412 39.4756 
3245 6 -1 6.11924 3.1782 42.8271 
3242 6 -1 1.8187 15.0582 37.4971 
3229 6 -1 15.5852 12.5655 40.3087 
3231 6 -1 16.8405 0.338332 35.7783 
3226 6 -1 11.0661 16.6444 37.8891 
3212 5 1 19.4808 3.53713 44.4934 
3244 6 -1 9.81475 13.6851 48.7717 
3228 6 -1 6.86881 5.87244 48.8556 
3227 6 -1 14.2609 4.14973 56.0959 
3230 6 -1 1.03514 13.6679 51.7597 
3239 6 -1 6.43911 12.6624 54.3063 
3247 6 -1 0.448328 4.84619 58.6849 
3241 6 -1 7.03648 3.64477 47.1437 
3232 6 -1 16.4208 10.152 47.5433 
ITEM: TIMESTEP
102000
ITEM: NUMBER OF ATOMS
48
ITEM: BOX BOUNDS pp pp ff
0 20
0 20
0 62
ITEM: ATOMS id type q x y z 
3203 5 1 10.6194 1.77102 1.82761 
3218 5 1 11.8029 0.725916 2.26971 
3210 5 1 14.6093 2.0413 5.00496 
3220 5 1 17.7229 2.06721 4.11722 
3201 5 1 17.7856 0.99229 2.82545 
3216 5 1 19.3361 18.0487 1.55768 
3217 5 1 16.4773 9.03079 7.67709 
3205 5 1 2.1649 13.5507 4.22686 
3214 5 1 9.17872 10.5643 2.59049 
3224 5 1 7.38545 15.8326 2.4117 
3206 5 1 11.8861 15.0434 1.68717 
3221 5 1 12.3449 14.3287 2.93829 
3207 5 1 13.7521 14.999 1.25242 
3219 5 1 5.88887 18.9106 2.393 
3211 5 1 10.0275 1.28175 1.62923 
3213 5 1 9.79259 1.23393 2.05893 
3209 5 1 10.2012 19.4008 3.72976 
3208 5 1 18.2689 19.9887 2.8125 
3202 5 1 7.04949 17.4439 4.1392 
3215 5 1 8.20062 1.98638 3.05372 
3204 5 1 11.0592 16.7414 3.64189 
3222 5 1 13.8145 19.8221 4.96632 
3223 5 1 15.2506 18.0314 4.88855 
3238 6 -1 3.66437 3.58598 12.5852 
3243 6 -1 14.3079 3.01607 22.3194 
3225 6 -1 6.47318 10.3555 17.3008 
3235 6 -1 15.2263 6.92516 26.9932 
3237 6 -1 9.05995 8.1869 20.0108 
3236 6 -1 6.92927 3.64891 22.3555 
3231 6 -1 7.72701 4.81163 28.6844 
3233 6 -1 9.3146 16.3226 30.7367 
3248 6 -1 14.845 6.53172 27.151 
3234 6 -1 15.0819 2.75404 31.2143 
3240 6 -1 13.777 13.5704 44.4394 
3241 6 -1 4.18768 10.1131 44.8396 
3242 6 -1 2.44501 18.0084 34.7236 
3226 6 -1 12.2002 16.763 32.339 
3246 6 -1 7.3678 7.64754 44.4587 
3229 6 -1 19.7447 7.21834 41.2272 
3245 6 -1 12.3708 4.1862 44.2328 
3228 6 -1 13.2088 4.57101 46.2281 
3212 5 1 19.5435 12.1106 54.5683 
3232 6 -1 16.129 17.7693 55.8206 
3244 6 -1 5.108 17.0118 51.0702 
3230 6 -1 0.921081 16.8237 46.7824 
3227 6 -1 19.1766 4.80632 59.2558 
3239 6 -1 12.1849 14.6738 57.8496 
3247 6 -1 12.886 18.9743 58.0243 
ITEM: TIMESTEP
103000
ITEM: NUMBER OF ATOMS
48
ITEM: BOX BOUNDS pp pp ff
0 20
0 20
0 62
ITEM: ATOMS id type q x y z 
3213 5 1 9.76038 0.290902 2.22209 
3211 5 1 9.79643 0.91663 1.48928 
3203 5 1 12.2561 1.58833 1.89984 
3218 5 1 12.2332 1.191 1.53532 
3201 5 1 17.8 0.309479 3.07023 
3216 5 1 17.8243 0.589464 1.79547 
3214 5 1 7.73961 5.44066 2.23491 
3210 5 1 15.9939 3.5499 2.5012 
3220 5 1 15.4056 3.69359 3.02853 
3221 5 1 12.6927 13.1984 2.74024 
3205 5 1 2.23042 13.4146 3.5001 
3206 5 1 12.5747 14.3718 1.6208 
3207 5 1 14.2763 14.7005 2.42429 
3215 5 1 7.15498 19.8755 1.69022 
3224 5 1 7.14743 16.7912 2.5459 
3219 5 1 6.78034 18.8353 2.06875 
3209 5 1 9.12882 18.1894 3.22242 
3223 5 1 13.8272 17.0455 3.60293 
3208 5 1 18.1088 19.7693 3.14619 
3222 5 1 15.1011 0.206033 4.71398 
3204 5 1 11.0911 16.1521 3.9396 
3202 5 1 5.28655 19.2403 4.26971 
3217 5 1 13.5 9.64969 8.57068 
3238 6 -1 0.417921 3.45567 12.0865 
3225 6 -1 9.8328 11.482 16.7482 
3237 6 -1 18.8844 4.6625 19.5532 
3248 6 -1 9.68919 8.13536 23.1202 
3236 6 -1 10.6273 0.85747 23.8924 
3231 6 -1 18.5882 8.21029 24.4099 
3234 6 -1 6.57423 12.8803 27.5199 
3243 6 -1 2.6858 19.0202 29.6344 
3226 6 -1 12.0916 18.1924 27.6475 
3242 6 -1 3.33886 1.89837 32.7659 
3235 6 -1 7.67617 4.11281 33.7849 
3233 6 -1 9.76028 12.1426 32.4214 
3245 6 -1 17.4243 4.69138 40.189 
3240 6 -1 7.85125 10.8739 41.4466 
3230 6 -1 0.942248 18.9685 41.7023 
3229 6 -1 6.24025 2.6703 44.4942 
3241 6 -1 0.0254844 16.0203 43.5151 
3228 6 -1 19.8476 3.06382 47.91 
3246 6 -1 3.09069 9.43121 48.9078 
3212 5 1 18.0374 2.19671 53.9772 
3244 6 -1 1.48579 17.9111 53.7108 
3232 6 -1 16.3245 4.14238 56.3288 
3227 6 -1 2.45246 8.5433 57.5356 
3247 6 -1 4.66136 14.8193 55.7094 
3239 6 -1 17.6357 17.1033 60.4175 
ITEM: TIMESTEP
104000
ITEM: NUMBER OF ATOMS
48
ITEM: BOX BOUNDS pp pp ff
0 20
0 20
0 62
ITEM: ATOMS id type q x y z 
3213 5 1 9.76944 19.7369 2.36377 
3211 5 1 8.56608 18.8957 1.64426 
3203 5 1 11.5202 3.29697 2.047 
3218 5 1 12.2161 0.115636 2.34388 
3201 5 1 18.064 18.7093 1.11295 
3216 5 1 16.7754 1.32432 1.89468 
3214 5 1 7.11606 6.9283 4.46982 
3210 5 1 14.0747 7.64838 1.3467 
3220 5 1 17.4609 3.71225 3.38785 
3221 5 1 11.6652 12.959 2.86449 
3205 5 1 2.82353 13.8358 4.15263 
3206 5 1 12.674 14.6923 4.28741 
3207 5 1 16.9374 14.0703 2.41532 
3215 5 1 7.07982 0.1033 1.52438 
3224 5 1 7.25642 16.5741 2.448 
3219 5 1 7.06274 18.8048 3.22073 
3209 5 1 9.33547 18.9713 2.90079 
3223 5 1 13.58 16.4716 3.95394 
3208 5 1 18.2916 2.99748 2.04249 
3222 5 1 15.0002 18.6167 5.1629 
3204 5 1 11.1257 16.162 4.28534 
3202 5 1 5.91792 19.1834 4.06049 
3217 5 1 10.7026 13.2827 3.24525 
3225 6 -1 11.2245 14.8426 17.3354 
3226 6 -1 10.1294 15.9879 24.5495 
3237 6 -1 13.025 5.22169 22.4528 
3248 6 -1 4.11113 10.5027 20.5751 
3236 6 -1 14.4737 16.7615 24.3107 
3231 6 -1 11.349 11.2907 19.7341 
3234 6 -1 17.6622 2.8065 23.5076 
3238 6 -1 17.8248 3.00741 16.7129 
3242 6 -1 2.58001 7.38405 32.2332 
3235 6 -1 16.8637 4.155 40.4325 
3233 6 -1 10.2192 5.13622 34.0323 
3245 6 -1 1.61556 4.64535 34.9814 
3240 6 -1 3.14319 8.20731 38.3929 
3230 6 -1 0.935029 19.516 36.7895 
3212 5 1 14.9753 13.8022 40.0854 
3241 6 -1 14.9266 1.25717 41.0469 
3243 6 -1 10.3772 15.3627 37.2531 
3232 6 -1 15.843 11.7661 45.8516 
3228 6 -1 1.49702 1.92967 56.6945 
3246 6 -1 16.4179 11.226 52.3031 
3229 6 -1 11.3671 17.5115 47.8767 
3244 6 -1 17.8569 1.79785 56.8897 
3227 6 -1 3.96821 13.321 52.4853 
3247 6 -1 17.2692 10.2259 55.9603 
3239 6 -1 2.72832 17.0085 54.0991 
ITEM: TIMESTEP
105000
ITEM: NUMBER OF ATOMS
48
ITEM: BOX BOUNDS pp pp ff
0 20
0 20
0 62
ITEM: ATOMS id type q x y z 
3215 5 1 7.04159 18.9171 1.14085 
3203 5 1 10.7925 3.13348 2.85787 
3218 5 1 12.7324 0.59177 1.51486 
3216 5 1 15.8545 1.11124 1.45373 
3208 5 1 16.543 1.85867 3.1898 
3220 5 1 17.5222 2.62504 3.29205 
3210 5 1 15.9147 8.00327 3.18107 
3221 5 1 14.266 15.0546 4.24665 
3217 5 1 10.8174 14.4816 3.06743 
3224 5 1 7.46356 17.2309 2.04542 
3207 5 1 13.5758 11.8737 1.16383 
3213 5 1 10.0514 19.6982 5.52005 
3211 5 1 9.06454 19.4281 1.00173 
3219 5 1 6.45652 18.9042 3.0886 
3209 5 1 8.7936 18.9668 2.83335 
3201 5 1 17.3055 0.683657 1.40799 
3214 5 1 10.1331 4.13657 1.9082 
3205 5 1 3.44202 13.4371 3.54962 
3206 5 1 13.6304 15.1491 4.03719 
3204 5 1 10.8024 16.1729 4.93882 
3223 5 1 11.9452 17.5565 5.19461 
3202 5 1 4.639 0.514789 2.96485 
3222 5 1 15.0164 14.5274 2.89601 
3238 6 -1 13.2685 0.15072 22.9182 
3225 6 -1 11.6254 18.4654 16.7925 
3237 6 -1 6.56182 9.05854 23.1366 
3248 6 -1 19.8953 14.38 19.3214 
3231 6 -1 3.8283 12.7974 16.9636 
3234 6 -1 8.86749 10.1913 19.9543 
3226 6 -1 6.71623 13.0186 21.7461 
3236 6 -1 18.8572 12.8985 23.2018 
3212 5 1 10.6533 3.66561 27.7019 
3233 6 -1 9.18255 17.9659 35.5826 
3242 6 -1 0.735127 12.7934 32.2295 
3232 6 -1 11.9664 18.5299 37.9295 
3245 6 -1 4.1552 2.43305 32.1522 
3240 6 -1 18.2638 4.69402 35.8303 
3243 6 -1 19.5583 14.1475 40.8934 
3230 6 -1 18.9103 1.61083 34.1497 
3241 6 -1 9.96067 4.10363 39.1772 
3235 6 -1 4.99651 4.06782 45.0982 
3227 6 -1 6.45149 17.2615 45.3959 
3239 6 -1 10.717 18.2349 46.4025 
3229 6 -1 13.2849 13.5659 51.4009 
3246 6 -1 10.1759 14.2747 56.9642 
3228 6 -1 3.45185 19.3645 57.9787 
3244 6 -1 12.2968 4.23369 59.7721 
3247 6 -1 11.4893 5.22767 60.1545 
ITEM: TIMESTEP
106000
ITEM: NUMBER OF ATOMS
48
ITEM: BOX BOUNDS pp pp ff
0 20
0 20
0 62
ITEM: ATOMS id type q x y z 
3202 5 1 4.25263 0.520258 2.84853 
3203 5 1 10.8596 2.47066 1.34105 
3218 5 1 11.7489 0.384496 2.4022 
3216 5 1 15.2695 1.12808 1.78423 
3208 5 1 16.4631 0.294985 3.89266 
3220 5 1 13.0962 18.0419 9.15867 
3201 5 1 14.7763 0.397022 1.14185 
3214 5 1 10.3761 2.68965 4.16222 
3210 5 1 13.5667 1.56592 4.13324 
3207 5 1 13.7897 14.5124 2.37336 
3205 5 1 4.41373 13.6524 3.42564 
3217 5 1 9.96516 14.2033 4.02671 
3222 5 1 13.1292 15.5871 3.25174 
3219 5 1 6.78916 19.4559 2.10404 
3215 5 1 8.41203 18.9691 1.33595 
3224 5 1 8.96702 16.5837 2.16557 
3211 5 1 9.33007 19.8378 1.69235 
3209 5 1 9.6792 19.8194 4.19712 
3204 5 1 12.3055 17.2713 5.32913 
3221 5 1 15.9584 16.7967 1.1051 
3206 5 1 12.1701 13.6938 3.89256 
3213 5 1 12.5592 5.09585 11.9958 
3223 5 1 10.9941 17.7605 4.67312 
3231 6 -1 14.402 13.8805 13.3814 
3234 6 -1 1.83138 17.4576 15.3756 
3248 6 -1 13.382 17.4894 17.6327 
3225 6 -1 8.30002 5.98689 16.0112 
3238 6 -1 9.67143 17.2674 30.8093 
3237 6 -1 3.83702 9.69879 24.1812 
3245 6 -1 5.98962 18.3436 30.1621 
3226 6 -1 3.33837 11.8015 20.4569 
3236 6 -1 2.96641 6.60462 21.5694 
3212 5 1 4.51441 13.3119 16.5545 
3230 6 -1 18.3861 2.23853 33.3549 
3242 6 -1 1.53644 18.4165 32.1506 
3240 6 -1 13.1271 1.63484 32.6237 
3233 6 -1 9.14348 11.6652 35.1086 
3232 6 -1 6.09571 2.63867 30.9899 
3241 6 -1 9.547 1.74391 34.0924 
3243 6 -1 11.2149 11.3546 45.8283 
3239 6 -1 18.297 2.29843 38.818 
3227 6 -1 7.78057 0.16136 39.4827 
3235 6 -1 12.8035 1.53697 49.4854 
3229 6 -1 13.9643 9.09553 56.7832 
3246 6 -1 1.2921 16.2624 59.1001 
3228 6 -1 4.98694 14.9872 51.8257 
3244 6 -1 10.8056 5.26817 55.1772 
3247 6 -1 4.05115 2.50186 57.7849 
ITEM: TIMESTEP
107000
ITEM: NUMBER OF ATOMS
48
ITEM: BOX BOUNDS pp pp ff
0 20
0 20
0 62
ITEM: ATOMS id type q x y z 
3202 5 1 6.11129 1.27888 3.06023 
3203 5 1 9.12534 5.8823 1.57177 
3218 5 1 11.5148 19.4186 2.32238 
3216 5 1 14.8887 1.49978 1.74712 
3201 5 1 14.4475 0.510674 1.65683 
3205 5 1 3.51143 14.6209 2.63935 
3224 5 1 8.89224 17.0153 2.24719 
3222 5 1 12.7631 14.7103 2.87701 
3206 5 1 11.68 15.3909 3.9219 
3207 5 1 13.0958 15.4816 1.71393 
3219 5 1 6.54703 19.2018 4.7168 
3215 5 1 5.80395 18.7323 1.96681 
3211 5 1 8.8221 19.6701 2.71299 
3221 5 1 14.1718 15.1477 1.00189 
3214 5 1 11.6309 1.17392 4.49615 
3208 5 1 14.7109 1.81416 4.88339 
3210 5 1 13.4074 0.25075 5.01011 
3217 5 1 8.97548 14.1811 3.69415 
3209 5 1 10.1315 0.484233 6.73485 
3204 5 1 9.66415 17.4108 5.45088 
3223 5 1 11.2102 18.6298 3.58109 
3225 6 -1 3.78756 15.1929 14.3771 
3220 5 1 10.3278 14.9807 3.93433 
3213 5 1 16.451 12.1957 13.1453 
3231 6 -1 3.82934 15.4083 9.07141 
3234 6 -1 13.6811 2.33173 9.32565 
3212 5 1 18.4516 3.41361 4.35996 
3240 6 -1 7.54634 19.6668 26.0791 
3245 6 -1 7.41249 12.4272 28.1536 
3248 6 -1 7.84426 1.32168 16.2808 
3236 6 -1 7.94081 17.5738 17.3864 
3226 6 -1 0.120404 11.9151 17.009 
3237 6 -1 3.52319 9.52886 24.0642 
3232 6 -1 19.8148 8.51444 24.1421 
3242 6 -1 4.34927 4.59131 30.2167 
3241 6 -1 9.07523 0.324359 31.7236 
3238 6 -1 6.92445 16.2354 37.4698 
3230 6 -1 18.9734 2.21125 32.7023 
3233 6 -1 12.991 5.89236 34.2791 
3227 6 -1 11.1286 3.99955 36.128 
3239 6 -1 6.30233 8.48081 32.8121 
3235 6 -1 0.55092 17.6912 52.332 
3228 6 -1 10.1173 7.46143 48.4519 
3247 6 -1 19.2268 19.1275 57.749 
3244 6 -1 12.3152 2.32918 54.9201 
3229 6 -1 14.1683 4.97913 58.1556 
3246 6 -1 11.2543 15.5455 52.4611 
3243 6 -1 1.12698 8.76101 50.8382 
ITEM: TIMESTEP
108000
ITEM: NUMBER OF ATOMS
48
ITEM: BOX BOUNDS pp pp ff
0 20
0 20
0 62
ITEM: ATOMS id type q x y z 
3202 5 1 9.39025 0.718825 2.1085 
3216 5 1 14.1546 2.77306 1.43761 
3201 5 1 13.528 1.00727 2.51356 
3203 5 1 11.5667 4.09569 2.97886 
3205 5 1 3.66449 13.8985 2.52042 
3217 5 1 9.07804 13.5056 4.47706 
3222 5 1 12.4809 14.4196 1.83662 
3206 5 1 10.9845 15.8038 4.01118 
3207 5 1 12.9567 14.5598 0.990743 
3221 5 1 13.9265 15.9607 1.22723 
3215 5 1 5.2629 18.2054 2.57254 
3224 5 1 9.24557 16.5292 2.92911 
3211 5 1 9.35148 19.5109 4.18301 
3218 5 1 11.5054 19.464 1.80785 
3223 5 1 11.0986 17.3764 3.86747 
3214 5 1 10.3181 1.58372 5.82052 
3209 5 1 9.29038 0.24278 3.78553 
3208 5 1 15.8054 18.8099 3.26514 
3210 5 1 14.5157 1.13026 4.86207 
3212 5 1 4.93 6.05572 4.39101 
3220 5 1 10.7387 13.5528 4.2025 
3219 5 1 6.78782 18.2929 3.21236 
3204 5 1 11.8291 15.5587 5.40143 
3234 6 -1 7.01131 6.60159 6.15173 
3226 6 -1 17.2832 11.4904 14.5902 
3231 6 -1 14.6513 17.4416 4.82856 
3213 5 1 1.75013 18.4775 13.2197 
3225 6 -1 2.95504 6.14987 12.8343 
3239 6 -1 17.4502 17.727 27.8714 
3241 6 -1 11.331 18.6415 30.2077 
3236 6 -1 12.3644 7.66947 15.9477 
3237 6 -1 2.65638 11.3947 22.0983 
3232 6 -1 12.3389 10.2461 19.9633 
3240 6 -1 5.12553 0.732065 18.2429 
3242 6 -1 8.22342 8.01913 29.0249 
3245 6 -1 12.8263 7.61806 25.0068 
3248 6 -1 4.89175 6.07684 15.515 
3228 6 -1 16.9286 1.86662 45.3499 
3230 6 -1 0.095162 2.04979 32.1536 
3233 6 -1 19.1002 18.6729 33.105 
3238 6 -1 4.80105 14.9168 42.9189 
3227 6 -1 14.2123 7.84961 35.8873 
3243 6 -1 11.141 7.3323 52.9941 
3246 6 -1 2.19953 15.7097 46.873 
3235 6 -1 7.42468 15.6974 55.9255 
3244 6 -1 12.8416 17.8878 54.3849 
3229 6 -1 15.083 3.17406 52.7635 
3247 6 -1 16.4298 18.2425 59.7627 
ITEM: TIMESTEP
109000
ITEM: NUMBER OF ATOMS
48
ITEM: BOX BOUNDS pp pp ff
0 20
0 20
0 62
ITEM: ATOMS id type q x y z 
3202 5 1 9.22819 0.474246 1.17971 
3209 5 1 7.97246 0.767828 4.55317 
3216 5 1 15.4946 0.970175 2.01073 
3201 5 1 13.5761 1.33579 2.83247 
3203 5 1 14.4101 3.55803 1.07827 
3205 5 1 2.61583 13.5275 3.02847 
3224 5 1 9.65581 14.9336 4.14426 
3222 5 1 11.6589 13.411 1.16452 
3207 5 1 12.3271 14.9041 1.28261 
3221 5 1 12.8803 16.8285 1.63901 
3215 5 1 4.52298 16.7416 1.84268 
3219 5 1 5.47058 18.382 2.65629 
3218 5 1 11.069 18.7404 2.74755 
3223 5 1 10.8504 16.5378 4.96628 
3208 5 1 16.2085 17.4439 3.67055 
3214 5 1 10.2591 0.730264 4.83913 
3210 5 1 13.1438 1.75009 4.47308 
3212 5 1 17.3808 6.85716 1.72593 
3234 6 -1 16.7536 7.18008 9.61329 
3217 5 1 8.31924 14.5557 2.04829 
3206 5 1 11.3712 12.9481 3.94589 
3220 5 1 9.87213 13.4029 3.16676 
3204 5 1 14.0281 9.89395 4.64157 
3211 5 1 12.1079 17.205 5.37176 
3231 6 -1 14.7776 13.009 7.32448 
3240 6 -1 5.0164 1.08676 14.3295 
3213 5 1 5.45128 2.77392 9.49234 
3225 6 -1 2.17045 14.8591 13.1145 
3226 6 -1 13.5198 11.2048 14.5971 
3248 6 -1 1.75579 11.4442 17.7272 
3241 6 -1 14.0024 16.9026 28.0627 
3239 6 -1 8.37263 4.27081 20.385 
3237 6 -1 3.28503 14.2763 20.7255 
3232 6 -1 5.24942 11.1827 20.6392 
3245 6 -1 0.295168 5.41431 18.7203 
3242 6 -1 10.1559 11.2706 28.6779 
3236 6 -1 17.0316 1.81791 15.6741 
3230 6 -1 3.24315 3.89156 33.9046 
3233 6 -1 5.30914 10.7614 33.2024 
3227 6 -1 16.8685 10.9178 35.4455 
3228 6 -1 4.33055 0.634836 41.3891 
3246 6 -1 12.7287 13.9906 38.7586 
3247 6 -1 16.6744 18.0981 55.7913 
3229 6 -1 17.8557 3.74545 46.9859 
3243 6 -1 5.66382 7.48373 55.6006 
3235 6 -1 13.6443 12.0491 59.5684 
3244 6 -1 14.0716 13.3019 55.2431 
3238 6 -1 3.1041 14.9683 46.6746 
ITEM: TIMESTEP
110000
ITEM: NUMBER OF ATOMS
48
ITEM: BOX BOUNDS pp pp ff
0 20
0 20
0 62
ITEM: ATOMS id type q x y z 
3202 5 1 8.27874 0.157849 3.1476 
3216 5 1 16.0796 0.683789 2.24481 
3201 5 1 12.7781 1.26041 1.59302 
3203 5 1 12.3761 2.95025 2.74195 
3212 5 1 16.2243 9.69901 1.13624 
3205 5 1 2.57628 13.6058 2.70798 
3217 5 1 8.06071 15.3074 1.25442 
3220 5 1 10.3427 12.869 3.3507 
3222 5 1 12.2994 13.8187 1.27532 
3207 5 1 12.103 15.2725 1.26333 
3215 5 1 5.09951 17.7253 1.80102 
3219 5 1 6.44306 18.3187 1.51193 
3221 5 1 13.8801 18.3213 1.0953 
3218 5 1 9.97119 18.7318 2.55522 
3208 5 1 1.58025 15.3175 2.27054 
3209 5 1 6.57767 1.6577 3.56779 
3214 5 1 12.015 19.7332 5.52297 
3210 5 1 12.7764 1.79247 4.49935 
3204 5 1 15.3291 12.8029 2.02706 
3206 5 1 11.9232 13.544 2.30057 
3239 6 -1 16.5116 6.21074 15.0147 
3224 5 1 11.2063 17.059 6.55822 
3223 5 1 15.0102 18.8578 4.83578 
3211 5 1 9.02704 19.496 4.54848 
3213 5 1 8.69611 2.52125 3.08363 
3240 6 -1 5.50976 7.37541 13.7352 
3245 6 -1 5.74868 7.83696 14.5887 
3236 6 -1 5.0018 0.873771 16.604 
3234 6 -1 6.69639 7.17181 19.3186 
3241 6 -1 15.8699 12.1996 25.7321 
3248 6 -1 15.8393 17.7594 22.7233 
3246 6 -1 3.54046 10.6606 27.4459 
3232 6 -1 5.08879 8.56339 20.9224 
3237 6 -1 3.91432 15.4874 19.488 
3225 6 -1 19.0088 0.913406 16.5175 
3242 6 -1 12.1257 17.205 29.5066 
3226 6 -1 11.5285 8.81907 16.8725 
3233 6 -1 9.42154 5.98885 30.4334 
3231 6 -1 16.4138 6.50255 15.7349 
3230 6 -1 5.37057 7.60479 35.2689 
3229 6 -1 1.38549 6.01715 38.6847 
3227 6 -1 17.6236 11.6198 32.2778 
3228 6 -1 11.6361 2.28942 35.954 
3238 6 -1 2.30767 13.1736 49.2261 
3243 6 -1 18.4035 8.31602 59.667 
3244 6 -1 16.2237 7.26322 54.5023 
3247 6 -1 16.1656 17.6109 53.3789 
3235 6 -1 0.903095 13.3485 59.0132 
ITEM: TIMESTEP
111000
ITEM: NUMBER OF ATOMS
48
ITEM: BOX BOUNDS pp pp ff
0 20
0 20
0 62
ITEM: ATOMS id type q x y z 
3209 5 1 17.6425 9.83965 2.98175 
3202 5 1 8.04695 1.74907 1.60636 
3213 5 1 4.7631 3.32048 1.62784 
3201 5 1 13.1315 0.462191 0.985077 
3203 5 1 11.9876 3.37873 2.75207 
3216 5 1 16.4628 19.6529 2.63468 
3212 5 1 15.5603 13.794 1.90412 
3220 5 1 10.1703 11.3378 3.80905 
3204 5 1 14.637 14.4509 1.10111 
3205 5 1 2.59527 14.1036 2.27964 
3208 5 1 2.65841 17.3292 1.76398 
3217 5 1 7.75343 15.0394 2.46862 
3222 5 1 10.1961 12.171 1.59765 
3207 5 1 13.4137 16.4431 1.67583 
3206 5 1 11.7413 13.1505 2.91157 
3215 5 1 4.02054 17.9308 1.66778 
3219 5 1 5.76584 18.3924 1.5044 
3218 5 1 10.0599 19.012 2.60507 
3221 5 1 13.2964 18.0419 3.07501 
3210 5 1 11.5021 2.37113 4.50475 
3211 5 1 10.3287 1.60844 4.20353 
3214 5 1 12.1662 0.226029 5.83963 
3224 5 1 10.3724 18.1937 5.23359 
3223 5 1 11.9934 17.2736 6.82832 
3239 6 -1 5.64537 7.45461 10.2162 
3240 6 -1 7.83651 17.4768 10.899 
3236 6 -1 11.2314 3.88746 16.8581 
3225 6 -1 18.5457 4.57554 20.0816 
3231 6 -1 18.5341 4.60958 25.5934 
3226 6 -1 7.01465 6.5933 18.5299 
3227 6 -1 16.4011 13.2171 27.3136 
3245 6 -1 12.0035 12.1688 17.2779 
3234 6 -1 14.7484 3.52778 29.3129 
3232 6 -1 3.33812 8.53333 24.1828 
3237 6 -1 2.8372 16.9043 17.9902 
3248 6 -1 11.1169 2.51625 28.7711 
3241 6 -1 18.5942 8.46624 25.023 
3233 6 -1 13.674 2.35199 28.7056 
3246 6 -1 16.3759 9.62544 15.7247 
3229 6 -1 2.96422 9.07438 30.6464 
3242 6 -1 10.0356 18.7172 35.7063 
3228 6 -1 1.97124 3.80089 31.5077 
3230 6 -1 5.25363 10.7255 36.0989 
3238 6 -1 1.46709 12.141 51.0185 
3247 6 -1 14.1656 17.0141 50.2031 
3244 6 -1 16.6631 1.36295 52.4366 
3243 6 -1 9.51125 5.64436 57.3138 
3235 6 -1 7.47601 17.3944 57.0728 
ITEM: TIMESTEP
112000
ITEM: NUMBER OF ATOMS
48
ITEM: BOX BOUNDS pp pp ff
0 20
0 20
0 62
ITEM: ATOMS id type q x y z 
3213 5 1 6.43724 4.86814 1.29568 
3202 5 1 6.54415 0.473981 1.97413 
3201 5 1 9.54053 17.9571 1.09796 
3203 5 1 12.3192 3.19464 1.50924 
3209 5 1 13.5788 16.6279 1.70063 
3220 5 1 3.97813 7.1399 2.35558 
3222 5 1 12.8961 8.95711 1.58626 
3206 5 1 12.4766 14.1009 1.91851 
3205 5 1 2.30555 14.3289 1.99065 
3217 5 1 7.90032 15.0955 3.29311 
3212 5 1 12.8103 15.032 4.36261 
3204 5 1 0.140989 14.839 1.36258 
3207 5 1 13.8303 17.0031 2.49402 
3208 5 1 2.28666 19.2498 1.17754 
3215 5 1 4.42702 16.7395 1.1101 
3219 5 1 6.28372 19.4796 1.12215 
3218 5 1 9.16478 19.2528 2.17498 
3221 5 1 12.7173 17.4823 3.49541 
3216 5 1 16.8573 17.7926 3.84084 
3210 5 1 12.7101 2.1088 4.73599 
3211 5 1 11.3003 1.34205 4.39378 
3214 5 1 12.1398 18.9685 6.4339 
3224 5 1 9.96 18.411 4.58045 
3223 5 1 11.3146 17.3879 5.52505 
3246 6 -1 12.7045 8.77063 6.61815 
3239 6 -1 15.3726 12.8182 9.79017 
3240 6 -1 9.75011 7.58292 11.7511 
3226 6 -1 4.15211 2.98201 20.6495 
3236 6 -1 16.5003 5.29676 21.8625 
3245 6 -1 17.6007 17.125 19.9531 
3237 6 -1 1.06393 18.2888 16.0666 
3227 6 -1 15.9722 14.8806 23.1926 
3225 6 -1 19.4 5.80178 19.8593 
3232 6 -1 5.67933 9.10063 27.0445 
3241 6 -1 0.492805 5.55507 27.4518 
3233 6 -1 18.7143 2.34247 26.9724 
3228 6 -1 11.7721 4.96895 26.6351 
3229 6 -1 6.34817 13.3845 22.5731 
3231 6 -1 19.8074 3.95297 34.6295 
3248 6 -1 7.76517 7.14429 33.3921 
3230 6 -1 6.37506 14.0976 36.6538 
3242 6 -1 6.23524 17.7031 43.5938 
3234 6 -1 7.24334 19.407 44.2244 
3247 6 -1 13.2244 15.4785 43.5071 
3244 6 -1 16.7015 11.8182 51.0792 
3238 6 -1 19.6102 10.3827 52.7917 
3243 6 -1 2.0131 2.6408 52.1566 
3235 6 -1 15.8838 2.65408 56.6406 
ITEM: TIMESTEP
113000
ITEM: NUMBER OF ATOMS
48
ITEM: BOX BOUNDS pp pp ff
0 20
0 20
0 62
ITEM: ATOMS id type q x y z 
3202 5 1 6.9826 0.593034 1.54194 
3203 5 1 12.8115 2.75216 2.65205 
3213 5 1 3.49825 5.19178 1.99525 
3220 5 1 4.10214 4.90081 1.60871 
3222 5 1 15.5556 8.61667 1.22348 
3205 5 1 2.03908 14.2121 1.87715 
3204 5 1 17.9676 0.0652959 5.56036 
3217 5 1 8.1262 14.1599 2.90084 
3206 5 1 12.5225 15.1649 2.96274 
3208 5 1 1.9811 0.2077 1.8662 
3215 5 1 4.07454 17.6412 1.17561 
3219 5 1 6.98835 18.129 1.73609 
3201 5 1 9.80685 18.3678 1.34566 
3218 5 1 8.67333 18.1926 1.82001 
3221 5 1 12.782 17.6111 4.38415 
3209 5 1 13.8101 15.2658 2.92368 
3207 5 1 15.0504 17.1919 1.15644 
3216 5 1 16.4886 19.9941 2.45878 
3210 5 1 13.3075 2.12853 4.40217 
3211 5 1 9.6235 0.293484 3.7575 
3246 6 -1 9.17291 6.71144 5.06875 
3212 5 1 14.0146 16.0909 5.44875 
3224 5 1 9.97393 16.8745 5.37344 
3214 5 1 12.4554 18.8987 5.21931 
3223 5 1 11.4816 18.941 5.80733 
3239 6 -1 6.01855 0.691287 15.1017 
3237 6 -1 19.4156 19.2916 14.5571 
3229 6 -1 8.687 16.2243 13.5773 
3240 6 -1 12.0937 16.8268 18.6566 
3226 6 -1 3.31749 18.3257 25.5934 
3236 6 -1 0.0672578 5.70255 30.0207 
3225 6 -1 19.7821 6.29418 21.1292 
3227 6 -1 13.0472 18.1274 21.998 
3245 6 -1 2.39011 1.62341 24.3393 
3233 6 -1 2.82304 4.64879 27.7044 
3228 6 -1 18.2275 1.23418 25.2578 
3232 6 -1 11.7388 8.66575 27.6527 
3231 6 -1 19.6911 4.91148 39.9257 
3248 6 -1 4.24945 10.4049 38.5145 
3230 6 -1 7.19816 16.4956 36.2052 
3247 6 -1 15.5816 12.9365 37.5368 
3241 6 -1 2.27352 3.87212 32.685 
3243 6 -1 13.3483 19.9237 47.9188 
3244 6 -1 18.2494 3.14926 52.7164 
3238 6 -1 1.47473 12.4748 53.6299 
3235 6 -1 2.76924 5.6373 57.6593 
3234 6 -1 0.990298 19.6104 60.7281 
3242 6 -1 3.53628 15.0557 48.8505 
ITEM: TIMESTEP
114000
ITEM: NUMBER OF ATOMS
48
ITEM: BOX BOUNDS pp pp ff
0 20
0 20
0 62
ITEM: ATOMS id type q x y z 
3208 5 1 2.43614 0.410347 1.38406 
3202 5 1 6.3451 19.8858 2.81295 
3211 5 1 8.11674 0.0236726 3.58635 
3203 5 1 12.1357 1.74246 1.96355 
3216 5 1 16.5702 0.986879 3.22015 
3213 5 1 5.31282 9.77127 1.37296 
3220 5 1 18.2524 2.99508 4.10049 
3222 5 1 17.6297 13.6063 1.93526 
3205 5 1 2.142 14.6967 0.971901 
3217 5 1 7.79307 14.5113 3.84829 
3206 5 1 13.6202 15.8699 2.70125 
3209 5 1 13.085 14.6888 4.05993 
3215 5 1 5.2124 0.448221 1.22172 
3219 5 1 7.28114 17.5776 1.90968 
3201 5 1 9.85385 0.172939 1.90476 
3218 5 1 9.77331 19.3222 1.63735 
3207 5 1 15.3149 16.7348 1.71593 
3210 5 1 14.0641 1.66235 4.95476 
3204 5 1 11.2291 7.05018 4.39853 
3246 6 -1 7.91911 11.2518 10.6282 
3212 5 1 13.1673 7.3132 1.66402 
3224 5 1 12.3434 16.5839 5.09617 
3221 5 1 11.8205 17.3274 4.58492 
3214 5 1 14.0926 19.2994 5.42445 
3223 5 1 13.1148 18.6209 5.10352 
3237 6 -1 17.4172 0.430795 13.8856 
3229 6 -1 11.7575 15.1308 11.0837 
3232 6 -1 19.5393 8.48053 28.5474 
3240 6 -1 15.4569 2.34361 25.0954 
3225 6 -1 18.2781 5.65035 24.0662 
3227 6 -1 11.5293 3.56755 27.3807 
3245 6 -1 5.24369 5.1272 27.1926 
3228 6 -1 3.36557 15.636 27.7776 
3239 6 -1 15.4737 9.69778 21.0221 
3233 6 -1 6.62102 7.1181 29.8478 
3241 6 -1 3.08408 19.6154 36.6883 
3236 6 -1 1.30808 3.41499 39.5884 
3248 6 -1 0.948573 13.6541 44.2923 
3247 6 -1 19.5304 10.8731 31.5649 
3230 6 -1 8.30805 0.411172 33.3004 
3231 6 -1 19.5483 6.30614 42.4751 
3243 6 -1 5.90157 16.9038 44.2008 
3226 6 -1 3.9033 13.9745 32.5218 
3242 6 -1 1.04572 12.1836 55.4084 
3244 6 -1 18.7744 14.0858 54.6075 
3238 6 -1 3.6401 16.503 57.0776 
3235 6 -1 8.57542 8.02953 59.9046 
3234 6 -1 13.1227 1.45666 48.2722 
ITEM: TIMESTEP
115000
ITEM: NUMBER OF ATOMS
48
ITEM: BOX BOUNDS pp pp ff
0 20
0 20
0 62
ITEM: ATOMS id type q x y z 
3208 5 1 1.0701 0.268673 1.28486 
3215 5 1 4.5547 5.86077 2.90085 
3201 5 1 9.84344 19.3037 2.34631 
3203 5 1 11.2144 2.54289 2.68882 
3216 5 1 15.321 19.3529 3.06933 
3213 5 1 7.34015 11.1793 1.9738 
3212 5 1 12.811 7.51941 7.85778 
3205 5 1 2.03394 16.4298 1.71202 
3217 5 1 7.51104 14.4104 2.85552 
3206 5 1 13.1483 16.9032 4.13835 
3222 5 1 14.2559 14.2265 2.41313 
3202 5 1 5.8917 19.6264 2.87305 
3211 5 1 8.15633 0.407504 3.20634 
3219 5 1 8.40954 17.919 1.39589 
3218 5 1 10.0154 18.7855 1.47208 
3207 5 1 14.0567 18.483 1.63438 
3210 5 1 14.8198 0.469991 5.52968 
3220 5 1 16.2626 1.39558 5.95367 
3204 5 1 3.29881 9.96484 5.26071 
3209 5 1 12.2851 14.0478 3.19965 
3224 5 1 11.6078 18.6026 6.10713 
3221 5 1 12.1738 16.1518 5.21042 
3223 5 1 14.1338 18.2001 5.17006 
3214 5 1 14.0906 0.626168 4.42664 
3246 6 -1 5.21116 14.3572 15.476 
3229 6 -1 17.3246 14.4252 9.72913 
3237 6 -1 14.2932 5.43861 12.7841 
3239 6 -1 2.41614 19.8188 25.036 
3240 6 -1 0.964756 6.10412 28.7922 
3225 6 -1 14.44 3.38406 25.1212 
3245 6 -1 9.09867 7.55964 29.5599 
3247 6 -1 3.20982 11.2936 24.6562 
3228 6 -1 6.53412 12.2546 27.1495 
3232 6 -1 6.55859 7.39891 27.0125 
3230 6 -1 11.6875 5.70784 30.9972 
3243 6 -1 18.1221 14.313 39.0235 
3226 6 -1 5.01636 9.1554 39.575 
3241 6 -1 3.24899 17.157 40.9635 
3231 6 -1 1.67773 10.1218 44.6668 
3234 6 -1 5.55483 5.3726 38.3626 
3227 6 -1 11.5072 7.30496 33.8484 
3233 6 -1 9.98875 8.20734 31.8793 
3248 6 -1 19.4155 18.1339 50.854 
3242 6 -1 17.8447 7.4906 58.8104 
3238 6 -1 6.26121 19.7225 58.7227 
3244 6 -1 18.3259 6.21163 55.649 
3235 6 -1 13.7183 10.5286 60.3129 
3236 6 -1 2.13984 1.7213 46.8536 
ITEM: TIMESTEP
116000
ITEM: NUMBER OF ATOMS
48
ITEM: BOX BOUNDS pp pp ff
0 20
0 20
0 62
ITEM: ATOMS id type q x y z 
3208 5 1 2.68547 2.56068 1.09969 
3211 5 1 8.32931 19.9137 3.27875 
3203 5 1 11.8052 2.13118 2.81504 
3215 5 1 4.82576 5.32966 1.19021 
3213 5 1 7.19909 12.4164 3.24366 
3205 5 1 0.74757 13.3882 2.7209 
3217 5 1 8.30115 13.3907 2.96767 
3209 5 1 12.4047 14.3101 3.66094 
3222 5 1 14.0956 17.2618 3.30969 
3202 5 1 8.12963 19.5648 2.2663 
3201 5 1 9.70219 17.6321 3.00071 
3219 5 1 9.2335 18.1319 1.13126 
3218 5 1 10.1793 18.6971 1.26219 
3216 5 1 15.0165 19.2305 2.59124 
3207 5 1 13.9121 18.2147 2.29108 
3210 5 1 14.234 0.617261 4.21516 
3220 5 1 14.0422 2.48461 4.40698 
3214 5 1 13.2128 1.36538 3.86136 
3204 5 1 0.721422 10.7941 5.9513 
3221 5 1 13.7362 15.8096 5.41876 
3206 5 1 13.2981 16.693 4.52051 
3224 5 1 11.4969 0.350534 6.28412 
3223 5 1 11.7737 18.5921 4.33232 
3212 5 1 13.0177 7.92439 7.5182 
3229 6 -1 3.53662 17.0941 14.414 
3246 6 -1 2.38946 17.1765 21.0545 
3225 6 -1 8.76957 19.4159 26.5477 
3232 6 -1 17.0337 5.10415 23.97 
3247 6 -1 3.51215 14.0424 18.1961 
3239 6 -1 6.38372 10.3909 28.3057 
3240 6 -1 6.61478 10.1166 30.3418 
3230 6 -1 1.17915 8.82585 28.4903 
3245 6 -1 12.0027 9.10132 29.2851 
3228 6 -1 10.1994 8.55064 27.5659 
3234 6 -1 17.3009 11.1796 28.1111 
3237 6 -1 12.8937 15.7669 17.4277 
3233 6 -1 11.6561 11.2532 34.6595 
3227 6 -1 13.5593 6.76336 42.0208 
3241 6 -1 6.77233 15.9061 44.4714 
3243 6 -1 8.10769 12.3312 33.4768 
3236 6 -1 3.07127 18.8983 54.7294 
3248 6 -1 19.4418 1.00465 58.4603 
3244 6 -1 0.895 16.2449 58.5162 
3242 6 -1 12.7449 1.24373 50.5051 
3235 6 -1 18.811 14.1807 60.8165 
3238 6 -1 10.6982 1.49602 52.6655 
3231 6 -1 5.04261 14.761 47.1367 
3226 6 -1 5.8563 4.33346 48.3793 
ITEM: TIMESTEP
117000
ITEM: NUMBER OF ATOMS
48
ITEM: BOX BOUNDS pp pp ff
0 20
0 20
0 62
ITEM: ATOMS id type q x y z 
3208 5 1 2.21402 2.13288 2.96884 
3203 5 1 12.7633 1.81639 4.19958 
3214 5 1 13.0162 2.11737 3.35908 
3215 5 1 6.35247 6.60248 1.55864 
3213 5 1 7.93797 12.7965 3.47271 
3205 5 1 3.028 12.6662 5.05103 
3217 5 1 10.8009 12.1561 3.21689 
3209 5 1 13.0775 13.5884 3.12128 
3211 5 1 8.62449 19.7686 2.97106 
3202 5 1 8.09136 18.9845 2.46226 
3201 5 1 9.96383 17.5179 3.24133 
3219 5 1 7.73173 17.564 1.1479 
3218 5 1 9.6927 18.219 2.13401 
3222 5 1 13.0852 18.0801 3.52078 
3216 5 1 15.7831 18.6657 3.05408 
3207 5 1 13.0346 19.6068 0.973541 
3224 5 1 10.4787 0.656764 3.96547 
3210 5 1 14.3408 0.186919 3.16294 
3220 5 1 16.62 0.014532 3.31949 
3212 5 1 11.2613 7.88099 2.96904 
3204 5 1 4.63626 11.9318 4.55338 
3221 5 1 12.1783 15.7502 4.73227 
3206 5 1 15.6498 16.6787 5.79465 
3223 5 1 12.799 17.8308 3.11187 
3247 6 -1 3.23102 14.841 14.3465 
3243 6 -1 16.5292 8.32875 29.1878 
3237 6 -1 12.1452 7.38812 26.8745 
3246 6 -1 1.68517 18.5765 25.9474 
3232 6 -1 7.03223 4.4541 22.6778 
3225 6 -1 6.06497 18.2336 27.1825 
3230 6 -1 8.15809 11.2045 25.8348 
3245 6 -1 17.3205 11.6199 28.9744 
3228 6 -1 14.3195 4.25946 28.4542 
3239 6 -1 2.48583 18.8671 30.9277 
3229 6 -1 12.0484 19.8768 20.6111 
3234 6 -1 10.2168 16.2961 17.1107 
3240 6 -1 9.1826 14.7026 31.8345 
3233 6 -1 14.1643 14.5658 38.6059 
3242 6 -1 8.70592 14.5506 42.4108 
3226 6 -1 3.53791 0.691409 56.8717 
3231 6 -1 7.70622 19.4237 51.2427 
3238 6 -1 18.4731 2.93872 50.5287 
3236 6 -1 5.03401 15.5029 61.0091 
3248 6 -1 18.6453 3.5588 58.3544 
3244 6 -1 9.2305 7.50809 59.9019 
3235 6 -1 0.119774 15.6419 60.053 
3227 6 -1 14.8712 5.55023 49.4326 
3241 6 -1 10.3138 16.9427 46.9572 
ITEM: TIMESTEP
118000
ITEM: NUMBER OF ATOMS