ITEM: TIMESTEP
5100
ITEM: NUMBER OF ATOMS
268
ITEM: BOX BOUNDS pp pp ff
0 40
0 40
0 42
ITEM: ATOMS id type x y z 
3851 5 0.785952 5.30657 2.1721 
3863 5 8.41121 6.87173 2.04871 
3864 5 20.8621 3.884 1.99118 
3923 6 34.5388 18.0941 20.723 
3942 6 39.9503 19.2147 19.8253 
3821 5 31.7363 4.1041 2.67204 
3883 6 5.33277 9.29198 3.95936 
3814 5 14.2562 9.59738 3.34459 
3826 5 34.4435 12.7593 2.24645 
3943 6 28.4624 7.54756 3.22901 
3867 5 37.6647 9.78286 4.53789 
3830 5 34.6871 14.0828 3.02696 
3945 6 32.7615 4.84035 19.3451 
3811 5 5.90807 18.7686 4.90229 
3990 6 3.23673 13.7929 1.47562 
3801 5 26.9698 16.9445 4.08983 
3835 5 30.7588 15.7559 1.13086 
3825 5 25.3127 18.2913 4.5977 
3847 5 35.4812 16.3497 4.07666 
3928 6 10.9305 16.7738 16.4757 
3875 6 39.0196 10.771 3.39867 
4005 6 1.63185 18.2475 19.6361 
4040 6 12.5584 1.68095 7.79842 
3843 5 13.6687 2.17018 4.33012 
3857 5 18.7066 2.24067 7.59781 
4021 6 15.8925 0.834014 6.16169 
3824 5 21.9552 3.01266 6.10444 
3984 6 34.6449 2.9754 6.62135 
3820 5 6.96157 11.3966 6.06564 
3813 5 6.26155 5.50261 9.41421 
3815 5 9.61119 7.61753 7.07011 
3862 5 6.88923 11.8188 9.74105 
3838 5 9.29316 9.67151 8.20608 
3852 5 23.2635 11.1096 10.5999 
3931 6 38.0474 8.60599 11.0191 
3854 5 11.7157 15.0532 6.69199 
4057 6 19.9795 15.9629 9.4985 
3810 5 21.4356 13.4227 6.23324 
3832 5 26.5971 19.3969 5.01086 
3842 5 27.7805 14.4603 7.15649 
3805 5 24.6951 17.5877 6.82958 
3893 6 22.037 13.4543 19.181 
3807 5 33.3003 19.406 4.76266 
3964 6 9.65365 19.2937 1.3869 
4019 6 32.7403 13.4294 15.584 
3839 5 20.4024 2.20168 8.23154 
3856 5 21.6812 4.61069 8.77995 
3816 5 13.3666 6.74643 8.99309 
3962 6 16.5529 12.2963 12.317 
4063 6 12.1976 9.31344 14.9822 
3926 6 13.3475 6.86447 12.7815 
3880 6 18.0417 9.52395 15.6967 
3910 6 19.2346 13.7772 14.4011 
3818 5 20.0127 0.600512 3.88081 
4027 6 18.8757 16.9212 16.0036 
4026 6 26.241 13.2478 14.9919 
3823 5 35.2733 16.1509 10.4181 
3902 6 34.9212 12.8993 14.0357 
4028 6 6.19929 3.93561 20.8384 
3870 6 9.81268 8.07316 20.0664 
3919 6 10.0293 2.83255 20.2714 
4023 6 16.8892 0.0160933 16.7533 
3808 5 16.073 1.33923 16.9276 
3938 6 12.9862 3.12181 17.3557 
3885 6 3.07935 9.57414 19.2162 
3916 6 16.1605 9.40058 15.1129 
3955 6 9.25901 4.39073 22.3182 
3917 6 17.3657 4.58308 23.0975 
4022 6 23.1523 4.55622 26.506 
4065 6 22.5683 6.09277 25.3795 
4039 6 30.9172 2.95275 25.2337 
3879 6 12.2856 10.8272 26.4899 
4009 6 14.5956 12.5934 23.7342 
3878 6 33.9922 4.82062 23.1855 
3970 6 35.7852 11.3866 21.9437 
4006 6 1.62477 14.6386 24.7772 
4033 6 14.5025 19.7997 35.1312 
4029 6 9.22032 15.5621 21.9809 
4037 6 27.3513 16.1346 22.7248 
3952 6 37.4381 19.8313 26.0437 
3987 6 33.5031 18.6454 21.0401 
4030 6 36.497 14.6641 26.6724 
4056 6 0.581809 2.18779 30.8813 
4058 6 5.68648 1.73863 27.1648 
4041 6 9.06822 1.46194 29.5455 
3981 6 13.4249 5.0952 32.1645 
3907 6 8.41859 18.2167 28.5312 
3932 6 21.856 4.07874 25.8653 
3975 6 29.0388 4.10331 26.9086 
3869 6 27.0828 1.62774 31.9631 
3963 6 28.3332 2.14809 29.266 
3886 6 24.9188 9.37069 25.7977 
3993 6 24.8548 7.34173 28.848 
3913 6 33.3515 8.95102 27.4382 
3992 6 33.8541 7.49079 30.7916 
3898 6 38.7974 9.40826 26.7158 
4043 6 9.38347 14.1978 25.2354 
3936 6 11.1867 16.4983 28.6814 
3997 6 14.1739 18.3401 27.4879 
4059 6 33.1978 13.4062 25.5244 
3977 6 33.3649 18.8079 29.5112 
4000 6 0.829616 13.8444 30.5686 
4053 6 8.62189 6.47825 34.8975 
3941 6 14.5419 1.57073 36.5725 
4016 6 28.1333 6.58828 34.8739 
3965 6 33.9464 1.75709 32.4386 
3948 6 1.04649 3.92876 32.4076 
3873 6 37.5223 1.87053 31.5913 
3914 6 38.4183 12.1118 34.9678 
3950 6 11.4025 12.8899 32.8147 
3834 5 10.8546 8.49294 33.6662 
3944 6 7.60017 11.9405 33.6582 
4055 6 9.70654 9.08332 33.8448 
4018 6 22.8048 11.8562 30.8168 
3949 6 20.7182 8.25114 33.317 
3959 6 22.2729 8.02902 35.2804 
4004 6 30.6222 7.04695 33.5293 
3922 6 2.41339 17.024 32.0919 
3958 6 1.1674 16.5963 34.3135 
3877 6 7.95922 14.4076 31.5782 
3951 6 18.5746 13.9135 35.4944 
3890 6 28.9322 17.2723 36.6292 
3946 6 23.5258 13.8949 31.9316 
4046 6 22.9531 18.0243 36.3638 
3920 6 30.2163 12.9334 34.427 
3985 6 39.1509 14.8273 35.3321 
4044 6 3.07513 4.58619 38.3791 
4064 6 7.77427 6.12394 40.8009 
3884 6 13.4243 5.13633 39.3657 
3961 6 13.0132 3.13732 40.0725 
3973 6 20.1216 1.49491 39.5161 
4025 6 23.6656 2.25515 38.0935 
3925 6 24.1746 7.5538 37.0651 
4024 6 37.9766 3.33511 38.7218 
3918 6 2.10894 10.8696 37.1873 
3960 6 0.571373 8.76161 38.7922 
4017 6 21.4792 10.5324 39.9352 
3924 6 22.6228 13.7802 40.2173 
3915 6 9.40567 17.9408 36.8801 
3966 6 19.1104 17.8205 39.1016 
3908 6 23.2769 16.3273 38.7375 
4054 6 28.1252 14.1974 39.2203 
3935 6 36.0068 6.9713 21.1192 
3861 5 30.0686 22.2281 3.59738 
4032 6 27.1182 39.1133 17.7516 
3809 5 37.2974 23.1321 1.95194 
3802 5 5.49716 30.3402 2.8241 
3827 5 8.89957 28.8644 1.78716 
3833 5 14.815 27.8805 1.86985 
3859 5 15.8338 28.1596 2.85595 
4003 6 18.4429 28.9993 1.09846 
3845 5 29.9048 30.8743 3.27594 
3840 5 36.772 28.5786 4.75162 
3939 6 23.7886 37.7616 19.2778 
3853 5 17.2664 32.9383 4.41172 
3822 5 11.103 33.7286 2.78062 
4068 6 32.4682 20.763 16.7982 
3812 5 10.0048 39.0993 7.95036 
3837 5 18.8295 34.4771 5.5636 
3804 5 24.4436 36.8492 2.63391 
3831 5 37.7101 33.457 1.25477 
3865 5 6.63052 22.4423 11.7983 
3850 5 4.33509 24.3269 4.55066 
3969 6 10.1398 23.3333 8.25024 
3844 5 25.9794 22.068 8.67818 
3841 5 12.2379 28.3239 9.00865 
3996 6 22.5228 31.1929 7.70135 
3866 5 24.8553 26.0527 8.71837 
3849 5 22.9469 29.2913 3.85136 
3819 5 34.2193 28.3907 6.57917 
3947 6 4.20253 37.8893 6.87452 
3803 5 9.12462 34.1563 6.94624 
3846 5 6.55763 39.3019 7.23613 
3836 5 10.0265 35.7844 8.95579 
3848 5 18.3928 34.7729 9.98693 
3806 5 36.9678 38.509 7.70163 
3876 6 1.02126 23.8494 13.9661 
3921 6 5.27465 20.164 14.902 
3828 5 16.5242 20.5616 10.8145 
3817 5 31.9099 24.1828 12.2871 
3858 5 8.80692 31.1635 10.7359 
3829 5 14.2642 32.0892 9.98728 
3982 6 9.53898 30.2258 15.5985 
4020 6 27.9804 32.2886 15.7132 
3855 5 37.0951 33.2539 11.3634 
3903 6 9.23356 35.1648 9.77638 
4002 6 7.13074 34.1415 12.0574 
3995 6 9.1364 37.5942 11.3332 
3901 6 0.101881 33.8642 10.1288 
4007 6 4.47192 25.2844 18.6103 
4013 6 8.80088 29.2285 18.0608 
3895 6 31.1108 33.509 13.6886 
3980 6 21.8045 36.2792 19.9145 
3874 6 26.4607 36.5438 15.7466 
3882 6 25.2593 34.7932 20.0335 
4008 6 34.7495 20.2678 4.47383 
3860 5 15.8381 20.5394 8.55017 
3927 6 5.80469 23.6415 21.1835 
3978 6 9.79427 22.307 26.1065 
3974 6 11.6156 24.1635 21.5748 
3953 6 18.7658 23.1425 24.976 
3896 6 24.1152 23.2129 23.5175 
3956 6 1.24161 39.6574 29.9258 
3911 6 10.9295 29.6875 27.6126 
4048 6 21.6797 27.9541 23.175 
3933 6 31.8804 26.5925 22.7207 
3937 6 34.0492 30.7303 24.3033 
3881 6 4.08572 38.8098 22.2011 
3991 6 15.9525 34.7771 24.8898 
3894 6 17.5289 38.5451 21.1687 
3872 6 19.676 37.274 22.8661 
4036 6 35.9822 36.6117 22.6816 
3912 6 38.6112 37.9708 21.2533 
3934 6 4.41805 25.9375 31.495 
4061 6 39.6749 24.0016 28.7562 
4067 6 12.3513 22.9196 21.2861 
4035 6 7.42875 25.5281 26.6244 
3929 6 9.26525 25.1496 32.7236 
3988 6 18.6585 24.1733 29.4453 
4034 6 18.8419 22.6821 30.881 
3976 6 27.6089 22.5656 30.6228 
4051 6 37.784 25.737 30.2228 
3904 6 6.73324 30.9071 31.2923 
3979 6 1.79094 31.3337 30.7045 
3888 6 8.43494 27.2948 29.4717 
3900 6 11.9935 27.245 27.3764 
4062 6 19.9134 30.1 32.0898 
4060 6 15.6047 27.9026 26.7058 
3930 6 36.8679 29.3155 29.0628 
4011 6 38.4164 26.896 29.2564 
3871 6 14.1082 39.3146 28.0511 
3954 6 10.6409 36.6213 31.4825 
4066 6 3.32772 24.469 35.2033 
4050 6 8.11055 23.527 33.2363 
4031 6 14.2817 25.8021 32.8896 
3940 6 21.8432 24.3419 34.987 
4052 6 0.470332 34.3201 33.7344 
3957 6 5.04355 31.0466 33.6948 
3983 6 23.0944 32.2991 35.2397 
3887 6 33.0699 33.1536 30.8262 
3891 6 0.555653 36.8861 32.9463 
3889 6 9.91719 32.6369 32.0286 
3999 6 15.0495 33.4131 38.3009 
4012 6 20.7297 35.4129 32.5596 
3905 6 19.4053 34.6969 31.6576 
3899 6 26.7426 39.0766 34.1063 
3892 6 29.5703 35.1695 33.8933 
3972 6 39.0057 38.3291 33.0289 
4042 6 2.79059 25.2218 38.6291 
3968 6 1.32403 23.8203 37.2696 
3906 6 7.67348 20.0999 30.4195 
3897 6 18.1415 21.1744 40.1305 
3909 6 32.9254 21.8816 36.8881 
3986 6 30.3388 25.8263 37.6935 
3868 6 4.06652 31.5408 40.8131 
3998 6 7.15202 33.5824 40.9942 
4014 6 19.7025 27.7681 40.7736 
4045 6 27.6624 29.6231 40.7327 
4049 6 30.4625 30.919 41.0264 
4001 6 28.9069 28.5227 36.366 
3994 6 34.8447 26.7898 39.9777 
4015 6 38.4273 28.7564 39.6654 
4010 6 2.63954 34.1801 36.9147 
3967 6 5.94568 37.9262 39.1796 
3989 6 14.3662 39.3223 38.6155 
4038 6 17.9712 30.7019 39.2056 
3971 6 28.0645 38.1399 39.2632 
4047 6 13.1971 35.2848 21.8332 
ITEM: TIMESTEP
5200
ITEM: NUMBER OF ATOMS
268
ITEM: BOX BOUNDS pp pp ff
0 40
0 40
0 42
ITEM: ATOMS id type x y z 
3851 5 39.2553 4.76919 1.0511 
3863 5 9.58045 7.39109 3.44835 
3864 5 22.2258 5.07918 1.49259 
3923 6 31.5628 18.1194 18.6707 
3821 5 34.0316 2.15655 2.10986 
3987 6 31.5424 19.3246 19.731 
3883 6 6.20453 9.39506 3.42968 
3814 5 15.5312 10.0403 2.4679 
3826 5 35.4192 13.5755 2.7184 
3943 6 27.6133 5.92802 3.68736 
3867 5 34.7156 9.45461 4.92949 
3830 5 34.3429 17.7575 4.02561 
3945 6 30.8678 1.35636 17.4377 
3811 5 5.70937 19.8022 6.44887 
3990 6 3.08721 13.1596 1.48683 
3801 5 26.3802 18.4439 3.20654 
3835 5 31.1679 15.1535 2.08636 
3825 5 25.998 18.4825 5.84633 
3847 5 38.1975 16.6002 2.20473 
3928 6 9.23205 19.554 16.1775 
3875 6 1.2398 11.0547 3.43205 
3916 6 16.1446 8.88814 15.4912 
4005 6 1.61478 17.4648 20.224 
3955 6 8.45778 3.49807 20.1556 
4040 6 14.0151 1.98959 6.54477 
3843 5 14.3741 0.145019 4.04742 
3921 6 6.69999 19.1569 18.2431 
3857 5 18.9438 0.75074 7.22678 
4021 6 13.3158 0.777296 6.27339 
3824 5 22.4824 3.23597 8.62484 
3984 6 34.6636 4.87113 5.65944 
3820 5 7.23833 9.93226 5.7867 
3813 5 5.34468 3.82071 9.84656 
3815 5 10.8472 7.40575 6.78146 
3862 5 7.48543 13.0984 9.74124 
3838 5 8.17658 10.6582 9.80349 
3852 5 24.7413 11.6573 11.8124 
3931 6 36.5183 7.99394 12.0409 
3854 5 10.7429 15.966 4.95807 
3885 6 1.2707 9.03254 19.1096 
4057 6 19.481 14.5823 8.43459 
3810 5 21.0832 13.5522 5.95465 
3842 5 27.4751 13.3381 6.01128 
3805 5 24.3241 17.6645 7.14241 
3938 6 10.5757 1.35764 17.7622 
3893 6 22.2455 15.4718 19.6561 
3964 6 9.22564 18.6474 1.22291 
4019 6 31.5828 13.3767 14.1078 
3839 5 19.2228 2.61497 5.70622 
3856 5 25.2294 5.877 10.1732 
3816 5 13.9993 5.93463 6.85894 
3962 6 18.8864 12.5669 11.8906 
4063 6 12.5073 8.78327 16.811 
3926 6 13.893 5.97231 11.5845 
3880 6 18.7955 7.92787 16.1455 
3910 6 21.3296 15.7506 15.9189 
3818 5 19.3734 0.131797 3.43689 
4027 6 20.5585 17.8631 16.8948 
4026 6 25.7051 10.624 14.8259 
3823 5 35.156 16.4037 8.77702 
3902 6 34.6369 11.4734 17.1709 
3870 6 10.1473 10.3282 19.1825 
3809 5 36.2778 19.9359 3.02128 
3828 5 17.874 19.9529 10.5083 
3935 6 36.7794 7.39072 22.9144 
3899 6 25.4234 0.595089 33.6756 
3917 6 15.5258 3.23424 23.484 
3919 6 10.229 3.3571 21.6497 
4022 6 19.5536 3.92298 29.0695 
4065 6 20.5095 6.34997 24.867 
4039 6 28.33 1.15317 25.9381 
3879 6 12.9545 11.2972 28.3169 
4009 6 14.5108 11.6591 26.618 
4028 6 6.73 5.08879 23.1616 
3878 6 34.8223 2.26541 23.7458 
3970 6 36.5665 11.0528 21.4365 
4006 6 39.0918 13.3367 26.2683 
4033 6 15.0741 17.7037 32.3862 
4029 6 9.25847 12.992 23.4556 
4037 6 26.677 17.6491 23.7819 
4030 6 36.0184 12.619 28.4032 
4056 6 38.7119 1.10387 30.5039 
4058 6 4.26642 1.72396 27.0447 
4041 6 8.01316 -0.0319838 28.7795 
3981 6 13.521 6.29851 33.3183 
3871 6 11.7519 0.863645 28.4545 
3907 6 8.13292 15.9632 26.4313 
3932 6 21.3707 3.71654 23.4693 
3975 6 32.2276 2.5542 26.0264 
3869 6 27.6986 1.34015 33.1562 
3963 6 30.2336 1.88599 28.6066 
3886 6 25.6641 10.2093 24.2246 
3993 6 24.6555 5.76259 27.8632 
3913 6 35.5115 7.16763 25.4902 
3992 6 35.1078 5.72344 31.5903 
3898 6 0.189764 9.38781 26.9301 
4043 6 9.88894 15.2039 22.726 
3936 6 11.3501 13.6467 28.2515 
3997 6 15.1271 17.8097 25.8928 
4059 6 33.6907 13.1437 23.0291 
3977 6 32.2171 19.1548 32.4737 
4000 6 2.27858 13.3417 31.0044 
4053 6 9.69251 6.43216 34.6367 
4016 6 27.2082 7.24938 37.181 
3965 6 34.2797 1.822 30.5185 
3948 6 3.3717 4.8688 30.474 
3873 6 36.5223 3.78234 30.6656 
3914 6 36.1048 12.6875 33.7032 
3950 6 11.8415 12.9618 29.7478 
3834 5 10.2408 8.82436 33.8673 
3944 6 7.63281 10.9539 32.7198 
4055 6 9.72904 8.21286 34.4508 
4018 6 22.7768 13.2703 29.7421 
3949 6 18.8907 7.62126 33.9391 
3959 6 21.6549 7.87192 34.6264 
4004 6 28.9793 7.31225 32.6839 
3922 6 3.44406 18.3248 33.1899 
3958 6 0.474425 16.0231 35.9243 
3877 6 3.98898 14.6285 29.177 
3951 6 17.2018 12.2041 35.2793 
3890 6 31.5835 15.631 37.7086 
3946 6 24.0724 14.0018 28.9848 
4046 6 22.0366 17.4706 37.2718 
3920 6 26.9518 11.9745 34.7955 
3985 6 39.5863 13.4328 36.9887 
4044 6 5.96416 6.45821 37.2957 
4064 6 8.71195 6.53901 40.6605 
3884 6 13.8297 5.66085 37.5284 
3961 6 11.3447 2.164 40.5002 
3973 6 19.0284 0.811998 40.5166 
4025 6 23.1541 2.47195 38.4138 
3925 6 23.2799 9.15184 37.2294 
4024 6 39.5176 3.61923 39.3473 
3918 6 2.73371 10.1906 36.8417 
3960 6 39.2484 7.11446 36.7401 
4017 6 21.9468 8.99453 41.0077 
3924 6 24.1681 14.2047 39.7152 
3915 6 7.93576 17.9647 34.7051 
3966 6 18.0338 17.4779 34.8039 
3908 6 26.7398 16.8267 37.6609 
4054 6 26.8655 14.4436 36.3248 
3909 6 32.0712 18.2815 36.237 
4023 6 18.3625 38.0166 15.391 
3861 5 31.3982 23.0738 1.90006 
4032 6 29.4035 37.1993 18.7032 
3912 6 39.2802 39.519 20.0046 
3802 5 4.81918 30.7806 2.08602 
3827 5 10.2292 28.0087 3.38742 
3833 5 13.3706 28.8418 1.07915 
3859 5 16.5517 27.2315 1.38591 
4003 6 18.7431 28.5739 2.01519 
3845 5 29.0166 32.0085 4.1663 
3840 5 35.5436 29.7799 4.60753 
3939 6 26.2425 37.5249 17.0452 
3853 5 17.6604 31.7919 2.5979 
3822 5 11.2498 31.1224 3.95553 
4068 6 32.3321 22.3688 15.2102 
3812 5 9.48989 39.5791 8.04212 
3837 5 17.6459 32.7277 5.23897 
3804 5 23.8773 36.9611 2.22836 
3831 5 38.0397 32.6814 1.31569 
3865 5 7.84736 20.4856 13.3134 
3850 5 6.4811 25.5525 5.03332 
3969 6 8.34527 22.9107 8.2972 
3807 5 33.5205 20.2515 3.64328 
3844 5 26.7221 23.1202 7.6948 
3974 6 11.8761 23.0606 19.1364 
3841 5 13.8492 28.2547 7.76299 
3996 6 25.0188 32.674 8.57407 
3866 5 24.8255 24.554 6.75423 
3849 5 23.8346 28.4712 1.73821 
3819 5 31.7713 29.1914 6.21877 
3947 6 2.9929 37.1504 6.5037 
3803 5 7.22775 33.8276 6.3316 
3846 5 6.99481 37.4554 6.70793 
3927 6 6.0008 24.2197 19.8496 
3836 5 8.42677 37.742 9.0246 
3848 5 19.9526 35.967 10.6965 
3806 5 36.2735 37.6786 8.8072 
3876 6 0.718785 24.9359 13.7775 
3817 5 30.0113 21.9775 10.8696 
3808 5 18.2261 39.7164 15.8749 
3858 5 9.55718 30.2095 7.9856 
3829 5 12.666 31.8116 8.32197 
3982 6 7.65119 29.4653 15.3242 
4020 6 30.1651 32.0689 18.8252 
3855 5 37.609 34.4308 11.791 
3903 6 9.04678 34.2521 9.08621 
4002 6 8.61038 32.8013 11.8116 
3995 6 11.7383 36.3599 9.41179 
3901 6 1.22943 33.8163 9.10149 
4007 6 4.41987 24.7384 20.1105 
4013 6 9.08883 31.7668 18.1207 
3895 6 29.6393 33.4319 12.095 
3832 5 26.3659 21.2808 5.67978 
3874 6 27.1732 37.4572 13.8668 
3882 6 25.9214 34.5223 19.6973 
4008 6 32.6494 21.0697 3.26581 
3894 6 15.5131 38.2834 20.4644 
3860 5 15.8499 22.3863 8.27927 
3942 6 0.432358 20.7822 19.9597 
3978 6 10.5671 23.5095 26.3391 
3953 6 19.7366 22.5105 24.4363 
3896 6 23.9406 26.4896 24.3678 
3956 6 2.88627 39.0938 32.038 
3911 6 10.1749 30.1017 29.5057 
4048 6 21.4313 28.9721 22.5746 
3933 6 33.0481 24.1992 21.734 
3937 6 31.3368 32.4306 22.8374 
3881 6 4.0061 38.3507 22.3138 
3991 6 17.24 33.5327 25.317 
3872 6 20.2068 37.722 21.4023 
4036 6 35.1952 39.7843 22.1108 
4047 6 13.2533 35.3484 24.231 
3934 6 3.09314 28.9889 33.7746 
4061 6 38.5628 24.1123 31.0032 
4067 6 11.4573 20.4675 22.3746 
4035 6 8.56629 27.7174 26.2189 
3929 6 10.411 24.0444 34.8405 
3988 6 18.6242 24.2839 27.1435 
4034 6 19.5627 23.0409 28.0159 
3941 6 14.165 39.4653 37.4417 
3976 6 28.5317 20.7168 33.1829 
4051 6 35.2999 25.2183 30.0752 
3904 6 9.04366 30.7462 32.6648 
3979 6 2.13058 33.9714 29.8832 
3888 6 9.39235 25.862 31.7835 
3900 6 9.35245 27.1985 27.972 
4062 6 20.132 30.0946 33.706 
4060 6 13.7382 27.2805 24.9338 
3930 6 35.4523 32.1931 29.4553 
4011 6 0.208029 26.458 26.8439 
3954 6 8.44498 37.5162 34.627 
4066 6 4.24448 24.5957 35.7567 
4050 6 5.68968 23.0888 32.7708 
4031 6 15.2381 27.1242 31.3188 
3940 6 23.316 23.719 35.202 
4052 6 39.3111 36.0485 34.8851 
3957 6 2.6333 30.3375 33.1838 
3983 6 23.4152 33.0406 34.2154 
3887 6 33.3313 33.5093 29.6081 
3891 6 38.984 37.0321 32.9355 
3889 6 9.17178 32.0074 31.1338 
3999 6 15.9774 31.55 40.1713 
4012 6 21.6661 34.7989 31.6454 
3905 6 19.5632 35.195 29.6681 
3892 6 29.974 33.8015 33.7207 
3972 6 38.4687 37.2469 34.3932 
4042 6 5.07468 27.0018 37.97 
3968 6 1.52332 22.6041 34.4098 
3906 6 7.60796 20.8087 30.4205 
3897 6 18.0931 20.0272 39.6843 
3986 6 28.4668 26.1767 38.3294 
3868 6 3.065 32.3504 40.5128 
3998 6 7.42558 35.6804 40.1156 
4014 6 19.3895 25.0704 40.7795 
4045 6 29.7946 30.703 40.0246 
4049 6 32.155 34.0824 40.8787 
4001 6 27.7851 27.914 35.1887 
3994 6 34.0096 26.3038 39.0923 
4015 6 38.537 28.8365 38.2603 
4010 6 3.36072 33.7031 34.5418 
3967 6 4.36186 38.4437 40.7613 
3989 6 14.3796 38.875 38.2589 
4038 6 17.1276 27.7551 39.9284 
3971 6 27.1821 38.4613 37.7923 
3952 6 39.6585 20.4126 26.5993 
3980 6 22.6283 36.439 23.2424 
ITEM: TIMESTEP
5300
ITEM: NUMBER OF ATOMS
268
ITEM: BOX BOUNDS pp pp ff
0 40
0 40
0 42
ITEM: ATOMS id type x y z 
4059 6 34.0855 12.7799 20.7439 
3851 5 38.4946 4.57202 1.32162 
3863 5 10.4532 8.24011 6.0361 
4043 6 10.8535 16.6974 20.1614 
3864 5 23.7282 5.30486 3.7053 
3923 6 28.4504 18.1893 16.6169 
3821 5 33.6465 2.14653 1.26915 
3987 6 29.7535 19.4909 18.6566 
3883 6 7.11758 9.03937 3.16485 
3814 5 15.7821 9.87392 2.86826 
3826 5 35.8443 14.6192 3.50045 
3943 6 27.5076 5.14348 4.19245 
3867 5 32.5275 10.2651 4.92093 
3830 5 34.7164 19.2893 4.46225 
3990 6 2.04023 12.9134 1.00823 
3801 5 26.886 17.7061 2.58966 
3835 5 30.6708 14.413 3.27051 
3825 5 25.9976 18.9697 6.31177 
3847 5 38.6191 15.4595 1.7157 
3875 6 2.30609 11.7072 2.91629 
3865 5 9.59586 18.2823 13.0829 
3916 6 15.9736 8.93532 16.8957 
4005 6 1.91399 16.922 20.6449 
3955 6 7.66669 2.67887 17.8497 
4040 6 14.859 1.66864 4.89714 
3828 5 19.2158 18.7842 9.94456 
4021 6 11.4072 0.677509 6.49628 
3824 5 23.4626 3.02233 10.2767 
3984 6 35.7139 5.38359 7.109 
3820 5 7.88546 9.17712 3.54023 
3813 5 3.97236 2.75202 8.54672 
3815 5 11.6721 8.46599 7.6133 
3862 5 10.9233 13.8358 9.58445 
3838 5 8.39889 9.50524 9.45167 
3852 5 25.1334 12.4404 11.3196 
3931 6 35.6894 7.20548 12.9361 
3912 6 39.7417 1.28149 18.8602 
3854 5 8.48153 12.9373 3.62338 
3885 6 39.8756 8.30901 19.1825 
3870 6 10.4287 12.3808 18.5821 
4057 6 17.0418 12.9547 8.42826 
3810 5 20.7182 14.01 5.45499 
3842 5 25.7604 14.1633 5.85144 
3809 5 35.6582 17.2377 3.77318 
3805 5 25.4827 17.244 6.59083 
3893 6 22.541 17.5771 20.3925 
3964 6 10.047 18.9009 1.17947 
4019 6 30.0257 12.8718 12.5518 
3839 5 18.4383 3.12108 3.99444 
3856 5 25.2911 4.2528 10.3252 
3816 5 13.3718 4.88795 4.40474 
3962 6 18.3571 11.5099 11.1494 
4063 6 12.4497 8.03459 18.9362 
3926 6 15.2002 5.40877 10.9705 
3880 6 19.5019 6.08178 16.4295 
3910 6 23.3794 17.0539 18.1172 
4027 6 21.9421 18.683 18.3466 
4026 6 25.1987 7.99911 14.7847 
3823 5 35.553 17.6476 6.90084 
3902 6 34.0361 10.3201 20.5905 
3935 6 37.6483 7.89078 24.6471 
3899 6 24.0439 2.05488 33.1887 
3917 6 13.6931 1.83101 23.7325 
3919 6 10.3154 4.13875 22.9475 
4022 6 15.8223 3.34724 31.4332 
4065 6 18.2828 6.81389 24.1739 
3879 6 13.6004 11.8522 30.1361 
4009 6 14.9405 10.5788 29.2341 
4028 6 7.00493 6.14726 25.5448 
3970 6 37.6046 10.7962 21.0694 
4006 6 36.4936 12.0752 27.7032 
4033 6 15.5283 15.8232 29.6174 
4029 6 9.37797 10.4237 24.8766 
4037 6 25.7977 19.0352 24.805 
4030 6 35.1113 10.2493 30.0422 
4056 6 36.9698 0.372655 30.4095 
4058 6 2.74429 1.68401 26.8379 
3921 6 8.00068 18.1575 21.8598 
3981 6 13.4901 7.60002 34.4012 
3871 6 9.17132 2.27354 28.4204 
3907 6 7.19445 14.162 24.0405 
3932 6 20.8441 3.32508 21.0916 
3975 6 35.2004 0.983983 24.9542 
3869 6 28.7456 1.11085 34.4043 
3963 6 31.8345 1.47416 27.8016 
3886 6 25.7163 10.9298 22.577 
3993 6 24.5615 4.31454 26.7946 
3913 6 37.3922 5.41472 23.6192 
3992 6 36.4452 3.94698 32.6399 
3898 6 1.75461 9.39102 26.9303 
3976 6 29.316 19.3057 35.5971 
3936 6 11.1627 10.6144 27.2158 
3997 6 16.0136 17.1696 24.0489 
3977 6 31.0725 19.5114 35.4673 
4000 6 4.09245 12.9397 31.1289 
4053 6 10.8527 6.59502 34.3897 
4016 6 26.2602 7.90819 39.5003 
3965 6 34.5143 1.76104 28.7362 
3948 6 6.01191 5.94188 28.6958 
3873 6 35.555 5.78021 29.9093 
3914 6 33.5637 13.2876 32.311 
3950 6 12.8905 13.04 27.4327 
3834 5 9.29709 8.47534 34.4863 
3944 6 7.621 9.92803 31.8195 
4055 6 9.97713 7.75426 34.7516 
4018 6 22.696 14.5734 28.1543 
3949 6 16.9196 6.915 34.4558 
3959 6 20.9242 7.72241 34.058 
4004 6 27.4998 7.65838 31.9086 
3922 6 3.35938 19.1659 35.5576 
3958 6 39.6768 15.5247 37.1812 
3877 6 39.838 14.9267 26.739 
3951 6 15.7651 10.6343 34.8822 
3890 6 34.2666 14.0428 39.0208 
3946 6 25.0056 14.6815 28.1272 
4046 6 21.1177 17.1643 37.9361 
3920 6 23.7053 11.05 35.1921 
3985 6 39.9329 12.0998 38.7171 
4044 6 8.60778 8.47611 36.1991 
4067 6 10.5364 17.8627 23.3714 
4064 6 9.52589 6.94619 40.5992 
3884 6 14.3778 6.22212 35.6353 
3961 6 9.58073 1.07041 39.3088 
3897 6 18.0454 19.1583 39.6296 
3973 6 17.99 0.088908 40.087 
4025 6 22.8699 2.70746 38.5742 
3925 6 22.5475 10.4822 37.556 
4024 6 1.31519 3.71535 39.9701 
3918 6 3.43145 9.59128 36.6829 
3960 6 38.205 5.51025 34.7455 
4017 6 25.0993 7.68385 39.0374 
3924 6 25.9049 14.4547 37.7609 
3915 6 6.41443 18.042 32.4028 
3966 6 17.2048 17.003 30.5048 
3908 6 29.9235 16.65 36.6105 
4054 6 25.2389 14.8913 34.0235 
3909 6 31.2209 14.8043 35.6585 
4036 6 34.2477 3.03642 21.4228 
4023 6 19.6671 37.177 14.7924 
3861 5 32.1684 23.046 2.50032 
4032 6 31.5919 35.3356 19.9424 
3802 5 4.69484 31.0918 2.11737 
3827 5 10.6437 27.0398 3.91919 
3833 5 13.2798 30.1447 1.51107 
3859 5 18.1649 27.6714 2.33945 
4003 6 18.7207 28.084 3.01208 
3845 5 25.476 32.8657 3.38361 
3840 5 36.481 30.5851 2.85321 
3939 6 28.3791 37.7582 15.1504 
3853 5 18.1002 31.1071 2.08765 
3822 5 10.9499 30.8744 4.30653 
4068 6 32.114 23.7679 13.6022 
3812 5 9.91374 39.2277 8.54954 
3837 5 16.2927 31.3029 4.3042 
3804 5 25.4012 37.6418 2.2187 
3831 5 39.0606 32.4485 1.49536 
3850 5 6.46642 26.2096 6.6887 
3969 6 8.88466 23.8414 10.4485 
3807 5 33.1803 22.4455 3.94003 
3844 5 28.2241 25.314 7.74195 
3974 6 12.11 21.9008 16.8885 
3841 5 12.9217 28.6109 8.91717 
3996 6 27.2022 34.1564 9.3612 
3866 5 24.7708 25.1177 5.12822 
3849 5 24.7707 30.009 3.47349 
3819 5 29.8286 31.5834 5.13362 
3947 6 1.82704 36.1978 6.47286 
3803 5 5.36499 32.4994 4.21518 
3846 5 5.66656 37.5874 5.68595 
3927 6 6.15259 24.4987 18.824 
3933 6 34.3054 21.8417 20.8383 
3836 5 10.4033 36.5971 6.76618 
3848 5 20.2666 37.4386 8.64764 
3928 6 7.53872 20.2148 17.816 
3872 6 20.7254 38.1563 20.0724 
3806 5 35.7497 36.3687 8.10899 
3876 6 39.5447 25.5464 13.282 
3817 5 28.7324 21.3152 8.30281 
3945 6 28.9639 38.265 15.6973 
3818 5 21.3655 39.0593 1.47303 
3808 5 20.2131 37.1869 13.2566 
3858 5 10.033 29.2997 5.51853 
3829 5 11.3507 32.1109 8.46761 
3982 6 6.08863 28.8675 15.087 
3855 5 37.9434 33.9705 12.0881 
3903 6 9.29335 34.3266 9.52638 
4002 6 10.4601 31.7062 12.2846 
3995 6 14.6244 35.1912 7.37309 
3901 6 2.50019 33.5319 8.76194 
3938 6 8.28784 39.6199 18.5805 
4013 6 9.71029 34.3616 18.5942 
3895 6 28.8221 33.2295 11.6336 
3832 5 25.3815 20.9944 7.17766 
3874 6 28.8432 38.2274 12.3208 
3882 6 26.6989 33.7026 19.8598 
3857 5 17.5803 38.6058 5.70316 
4008 6 31.5842 21.6127 2.32315 
3894 6 13.2861 37.535 19.8845 
3860 5 14.9217 23.623 7.01831 
3942 6 1.03722 22.3764 20.4644 
3811 5 5.64758 22.9575 7.00743 
3843 5 14.8882 38.8197 3.20384 
3978 6 10.9819 24.4456 26.5015 
3953 6 20.2464 22.2439 24.0843 
3896 6 24.829 26.3791 24.2593 
3956 6 4.73196 38.5919 34.28 
3911 6 9.65416 30.6109 31.4126 
3980 6 23.7318 36.276 26.4361 
4048 6 20.9507 29.5886 22.036 
4007 6 4.36151 26.2617 21.9767 
3937 6 28.7236 34.1408 21.4808 
3881 6 4.16946 38.1534 22.4491 
3991 6 18.4253 32.4373 25.6935 
4041 6 7.01609 38.529 28.1737 
4047 6 13.4028 35.4827 26.5213 
3934 6 1.89883 31.476 36.1531 
4061 6 37.6005 23.8935 33.062 
4035 6 9.5847 29.8156 25.4093 
3929 6 10.6389 23.7716 35.8755 
3988 6 18.6629 24.1422 24.577 
4034 6 20.2129 23.1741 26.1467 
3941 6 13.3388 38.1121 36.7677 
4051 6 32.7103 24.7017 29.8299 
3904 6 10.3665 29.5926 34.9129 
3979 6 2.40376 36.5346 28.8377 
3888 6 10.3462 24.4996 33.9882 
3900 6 6.67319 27.0248 28.7849 
4062 6 20.0166 30.1342 35.207 
4060 6 12.0527 26.7231 23.172 
3930 6 34.2243 34.8069 29.5901 
4011 6 1.77001 25.9393 25.2498 
3954 6 5.94552 38.6522 37.5004 
3952 6 1.82253 21.0324 26.6782 
4066 6 5.19699 24.4753 36.5301 
4050 6 3.13135 22.5062 32.3426 
4031 6 16.2283 27.8684 29.6701 
3940 6 24.8635 23.1431 35.3796 
4052 6 39.3551 37.0018 36.8105 
4039 6 25.903 39.4098 26.5469 
3957 6 0.243237 29.5278 32.5302 
3983 6 23.9167 33.7801 32.8029 
3887 6 33.742 33.9371 28.34 
3891 6 37.347 37.5365 32.8852 
3889 6 9.50167 32.9629 29.3247 
3999 6 16.8833 29.9469 40.0387 
4012 6 22.5239 35.4662 31.7485 
3905 6 19.0978 35.7231 27.136 
3892 6 30.1998 32.4736 33.75 
4020 6 32.2033 31.8312 21.8619 
3972 6 36.9759 36.6393 35.0705 
4042 6 7.40753 28.4519 37.577 
3968 6 1.39877 21.1726 31.813 
3906 6 7.47153 21.3283 30.5082 
3986 6 26.8993 27.6437 38.9035 
3868 6 2.14954 33.3014 40.8396 
3998 6 7.60644 37.7546 39.4614 
4014 6 19.2609 22.4738 40.8128 
4045 6 31.8693 31.8156 39.0636 
4049 6 32.9353 37.0178 39.5195 
4001 6 26.3944 27.1558 33.7957 
3994 6 33.4285 25.7387 38.1714 
4015 6 39.053 29.0615 37.0208 
4010 6 4.14395 33.3451 32.1934 
3967 6 2.3719 39.221 38.2665 
3989 6 14.7356 37.5325 39.2415 
4038 6 16.1812 25.0058 40.9093 
3971 6 26.5932 38.7295 36.0192 
3878 6 35.7612 39.7595 24.3245 
ITEM: TIMESTEP
5400
ITEM: NUMBER OF ATOMS
268
ITEM: BOX BOUNDS pp pp ff
0 40
0 40
0 42
ITEM: ATOMS id type x y z 
4059 6 34.4601 12.5012 18.654 
3851 5 39.8204 5.36114 1.38391 
3863 5 8.91667 7.973 7.1498 
4043 6 12.6145 15.9711 18.7875 
3864 5 25.4568 4.38224 6.26334 
3923 6 25.2678 18.1913 15.04 
3821 5 33.1837 2.3959 1.70187 
3987 6 28.2996 19.7388 17.878 
3883 6 5.21076 8.47194 1.39104 
3814 5 15.529 9.51478 4.3105 
3826 5 36.5004 12.6632 2.83877 
3943 6 29.6879 4.97371 3.91091 
3867 5 33.6272 12.1405 5.43801 
3990 6 2.27343 14.7883 1.75843 
3801 5 27.2212 18.0782 1.39093 
3835 5 31.1022 15.9693 3.43147 
3825 5 26.0659 19.7893 6.23322 
3847 5 37.8841 14.7716 3.24511 
3875 6 1.97133 13.1606 1.31281 
3865 5 11.3456 17.1036 11.9942 
3970 6 39.0369 10.4378 20.6641 
3916 6 16.1778 8.8779 19.0479 
3955 6 7.60644 1.64979 15.911 
3932 6 20.2797 2.96793 18.9593 
4040 6 15.3337 0.569042 2.16608 
3828 5 20.8809 19.9534 9.88881 
3933 6 35.4517 19.478 20.1136 
4021 6 8.84991 1.30292 6.84746 
3824 5 23.546 1.89325 10.0581 
3984 6 35.1649 7.61462 7.18083 
3820 5 7.60567 8.79201 4.25519 
3813 5 2.73201 2.2827 6.5433 
3815 5 14.1306 9.05246 6.64099 
3862 5 14.2329 14.2488 10.7345 
3838 5 7.03525 9.46146 10.7671 
3852 5 24.538 11.7049 8.84561 
3931 6 35.0306 6.83739 13.9286 
3912 6 0.303847 3.41821 17.9513 
3854 5 9.35208 8.94283 2.78235 
3885 6 38.5711 7.46292 19.6437 
3870 6 10.6119 14.3262 18.1715 
4057 6 14.6059 12.4848 8.34299 
3810 5 20.2813 14.9863 3.76228 
3842 5 25.222 14.8049 5.04386 
3809 5 34.8006 17.28 3.83753 
3805 5 26.702 17.4647 5.55958 
4036 6 34.6867 6.795 19.7071 
3964 6 11.2958 18.677 1.19026 
4019 6 28.3314 12.2165 11.1606 
3839 5 18.6981 3.8985 3.50388 
3856 5 25.3508 3.33407 10.7893 
3816 5 11.7662 5.02087 3.99252 
3962 6 17.7278 10.5669 10.7074 
4063 6 13.4933 9.32696 17.2345 
3926 6 16.591 4.8928 11.2632 
3880 6 20.3694 4.02678 17.1793 
3910 6 25.4406 18.0665 20.416 
4027 6 23.186 19.4003 20.1071 
4026 6 25.1382 5.19277 15.0133 
3823 5 35.2642 17.4142 6.53024 
3935 6 38.5956 8.32027 26.2121 
3899 6 22.8396 3.2606 32.5268 
3917 6 11.7764 0.304754 24.1094 
3919 6 10.227 4.91439 23.8983 
4022 6 11.9307 2.52037 33.6698 
4065 6 16.2035 7.264 23.1779 
3879 6 14.0861 12.6011 31.9088 
4009 6 15.7901 9.43769 31.7702 
4028 6 6.83725 7.22359 27.2584 
4006 6 33.8785 10.8533 28.8579 
4033 6 15.5656 13.7561 26.8858 
4029 6 9.59628 7.90286 26.1296 
4030 6 34.0421 7.83405 31.7623 
4058 6 1.08743 1.52216 26.7004 
3921 6 8.75893 17.2836 25.1092 
3981 6 13.4581 9.18822 35.4169 
3871 6 6.7328 3.67759 28.334 
3907 6 6.36254 12.6205 21.9743 
3902 6 33.1089 9.25921 23.9489 
3869 6 29.6916 1.42561 35.7827 
3963 6 33.0432 1.6252 26.4376 
3886 6 25.3309 11.3037 21.1358 
3993 6 24.5306 2.93127 25.6211 
3893 6 22.7929 19.449 21.6044 
3913 6 39.2736 3.88063 21.6734 
3992 6 37.8197 2.2632 33.4595 
3898 6 2.9946 9.40575 26.7896 
3976 6 30.279 17.9123 38.0266 
3936 6 10.915 7.34678 26.0038 
3997 6 17.1808 16.495 22.0966 
3977 6 30.0398 19.8259 38.1801 
4000 6 5.77754 12.3632 31.3285 
4053 6 11.6327 7.28064 34.2169 
3909 6 28.4103 12.5862 33.9026 
4016 6 25.4581 8.4904 40.2103 
3965 6 34.4447 1.69173 26.9242 
3948 6 8.87542 6.99609 27.8233 
3873 6 34.5775 7.8524 29.1049 
3914 6 31.0933 14.0142 31.0445 
3950 6 14.3292 13.3128 25.3782 
3834 5 9.26597 7.61003 35.5759 
3944 6 7.60271 8.85839 31.1602 
4055 6 10.0493 7.40445 34.6251 
4018 6 22.8749 16.361 26.8775 
3949 6 15.45 6.13207 35.2987 
3959 6 20.3268 7.53684 33.5347 
4004 6 26.2096 8.05745 31.1636 
3971 6 26.226 0.0921174 34.7334 
3958 6 38.9194 15.0616 38.0865 
3877 6 35.7968 15.3807 24.7452 
3951 6 14.5068 9.36358 34.4384 
3890 6 37.2365 12.4095 40.4268 
3946 6 25.9949 15.3865 27.1214 
4046 6 20.268 16.9305 38.6021 
3920 6 20.5031 10.0203 35.6886 
3985 6 0.425297 11.0235 40.5822 
4044 6 10.8524 10.4492 34.563 
4067 6 10.1956 15.7521 24.6431 
4064 6 10.1196 7.262 40.8927 
3884 6 14.6108 6.60695 33.6515 
3961 6 7.91245 0.372653 37.9884 
3897 6 17.8275 18.3811 39.7992 
4025 6 22.5099 2.826 38.5491 
3925 6 21.8384 11.6202 38.0481 
4024 6 3.17802 3.73727 40.9566 
3918 6 4.17244 9.16928 36.7769 
3960 6 37.3164 4.16965 32.7359 