ITEM: TIMESTEP
2000
ITEM: NUMBER OF ATOMS
470
ITEM: BOX BOUNDS pp pp ff
0 15
0 15
0 42
ITEM: ATOMS id type q x y z 
2299 6 -1 2.28822 0.91017 1.14653 
2261 5 3 1.52687 1.39674 2.98714 
2549 6 -1 7.18348 0.239345 2.41356 
2278 5 3 5.59925 1.56346 1.29437 
2205 5 3 7.3841 1.08478 3.21266 
2288 5 3 9.47752 0.404513 1.73532 
2231 5 3 7.69185 3.05384 3.36272 
2602 7 1 10.5595 2.26569 1.30858 
2396 6 -1 2.331 3.57991 1.55494 
2603 7 1 1.99546 4.80151 1.37478 
2608 7 1 3.10625 5.5111 3.30426 
2229 5 3 1.62086 7.31612 3.02805 
2488 6 -1 4.42627 5.09176 1.82281 
2213 5 3 5.5007 5.93244 1.93025 
2402 6 -1 5.7954 5.03086 2.37183 
2239 5 3 5.45976 3.68662 3.46093 
2209 5 3 6.85021 4.94389 2.66547 
2260 5 3 7.1074 7.33046 2.61137 
2461 6 -1 10.3269 5.14491 2.14638 
2271 5 3 9.39926 5.32314 2.8778 
2538 6 -1 8.41986 5.09738 2.49063 
2227 5 3 11.2415 5.78383 2.28031 
2445 6 -1 12.2065 6.18245 2.15145 
2450 6 -1 2.08083 7.35229 2.12415 
2203 5 3 3.05576 7.90028 1.9532 
2284 5 3 1.28082 8.25078 2.37206 
2331 6 -1 3.05769 9.10622 2.13392 
2614 7 1 0.826833 11.3864 1.82309 
2492 6 -1 2.7939 11.1535 3.45269 
2354 6 -1 2.41002 8.42318 2.65577 
2621 7 1 6.6497 7.64728 1.40705 
2567 6 -1 5.689 11.402 2.51558 
2215 5 3 6.73501 10.8178 1.94525 
2246 5 3 6.00498 10.6991 3.32625 
2204 5 3 10.6795 8.11845 2.69203 
2290 5 3 13.9277 9.20885 1.31923 
2455 6 -1 13.8037 7.93664 2.00367 
2473 6 -1 14.1476 9.24333 2.42177 
2256 5 3 13.489 10.0955 2.99802 
2607 7 1 1.8642 13.489 1.31956 
2249 5 3 7.40806 14.0947 1.54868 
2561 6 -1 4.15107 12.0645 1.32201 
2438 6 -1 4.29669 13.5261 2.61178 
2551 6 -1 7.28052 13.2858 2.58813 
2585 7 1 7.37882 0.200577 1.40295 
2596 7 1 13.7145 12.2431 1.93101 
2350 6 -1 10.8767 12.0994 2.91725 
2511 6 -1 0.97666 1.50631 5.07896 
2475 6 -1 3.47441 0.890318 4.24222 
2479 6 -1 6.23009 1.2857 3.86626 
2253 5 3 5.60424 3.41313 4.90488 
2344 6 -1 9.67855 1.34817 5.50554 
2401 6 -1 8.97958 1.16168 4.49559 
2404 6 -1 9.91792 3.27736 4.76527 
2374 6 -1 9.44431 0.12951 4.75649 
2201 5 3 8.23876 2.03 4.57276 
2496 6 -1 8.68966 2.23072 6.03404 
2291 5 3 10.331 0.662618 5.01797 
2653 8 -1 11.5864 2.78629 6.28171 
2618 7 1 12.7985 1.44426 2.95373 
2385 6 -1 0.39689 5.85705 4.4428 
2407 6 -1 1.0094 7.01414 5.50463 
2661 8 -1 1.83756 7.40718 7.04659 
2286 5 3 1.48323 3.812 6.38404 
2558 6 -1 3.81435 4.47814 4.80167 
2451 6 -1 6.66005 5.69956 3.81019 
2312 6 -1 3.89198 6.16698 3.88865 
2506 6 -1 10.1687 5.39572 3.82851 
2361 6 -1 9.58915 5.90006 5.53216 
2545 6 -1 9.08634 5.87262 4.02946 
2606 7 1 8.27042 5.74421 3.3887 
2610 7 1 8.36578 5.93411 6.46537 
2379 6 -1 10.7214 3.80936 3.70622 
2220 5 3 10.271 6.64658 5.70521 
2434 6 -1 10.3982 4.04855 5.29765 
2318 6 -1 13.0477 7.0825 6.55465 
2211 5 3 12.6418 7.14182 4.48705 
2240 5 3 2.28384 7.62302 4.63705 
2463 6 -1 1.56296 11.4084 3.50652 
2663 8 -1 2.04113 8.22209 3.78161 
2523 6 -1 2.31083 10.4297 5.58559 
2279 5 3 1.12691 10.1993 5.97907 
2609 7 1 3.56207 9.12517 3.4794 
2598 7 1 3.17614 8.15676 4.14817 
2208 5 3 1.87263 10.6897 6.97469 
2539 6 -1 4.94439 10.8143 3.80156 
2377 6 -1 6.24897 8.30593 4.73586 
2592 7 1 6.51411 10.5103 6.05144 
2282 5 3 4.44163 10.6615 4.62961 
2430 6 -1 7.42389 10.2881 3.56039 
2420 6 -1 4.80872 9.73001 5.63184 
2241 5 3 3.66078 9.39635 6.69258 
2202 5 3 6.76664 10.019 7.06104 
2570 6 -1 7.37669 7.91136 6.44476 
2317 6 -1 9.65569 8.04306 4.32761 
2218 5 3 8.41104 11.3335 5.27607 
2321 6 -1 8.78404 10.1044 4.97749 
2435 6 -1 9.85151 10.304 4.98367 
2477 6 -1 9.97173 7.62775 6.34742 
2355 6 -1 10.4204 10.4278 3.89878 
2559 6 -1 9.47551 9.03625 4.28872 
2225 5 3 9.07954 8.16247 5.918 
2584 7 1 11.1945 10.3664 5.13726 
2615 7 1 12.7526 8.03219 5.19906 
2276 5 3 13.9496 10.6606 3.89358 
2262 5 3 4.60949 13.7043 3.65915 
2484 6 -1 5.68954 13.7162 5.69795 
2224 5 3 6.55549 13.608 5.00001 
2620 7 1 3.86114 12.6001 5.7132 
2315 6 -1 6.63789 13.1928 6.1337 
2280 5 3 5.68034 13.1596 6.55696 
2571 6 -1 10.3618 11.6583 4.55555 
2234 5 3 8.0677 13.0687 3.29656 
2366 6 -1 9.37598 13.9505 4.55327 
2237 5 3 8.19048 13.7858 4.87835 
2236 5 3 10.1702 11.2877 5.53978 
2281 5 3 10.5883 13.706 6.49075 
2293 5 3 9.21737 12.0234 3.74528 
2465 6 -1 12.3334 12.743 5.26555 
2629 8 -1 11.2832 11.9019 5.60977 
2329 6 -1 13.1416 11.627 3.50249 
2269 5 3 2.15332 2.2692 9.33186 
2597 7 1 5.42936 3.16819 6.9802 
2325 6 -1 5.68277 3.38077 7.96618 
2351 6 -1 5.90519 3.27968 9.45707 
2426 6 -1 8.82758 2.49192 8.56251 
2554 6 -1 8.09642 2.02043 7.17751 
2600 7 1 8.30787 0.766916 8.12442 
2591 7 1 9.44999 1.53173 8.69124 
2273 5 3 1.86443 5.04234 9.4144 
2328 6 -1 3.284 3.89252 8.96917 
2275 5 3 3.79964 4.29175 9.69899 
2432 6 -1 3.75037 6.69264 7.47803 
2659 8 -1 6.81337 5.6355 9.7495 
2277 5 3 3.71345 5.95443 8.35372 
2254 5 3 6.86622 7.67234 7.26925 
2367 6 -1 6.90513 4.92259 8.53389 
2469 6 -1 5.59375 7.23976 8.73987 
2541 6 -1 7.71115 6.74764 8.5034 
2324 6 -1 9.28738 5.11351 6.72187 
2259 5 3 9.92544 7.31833 7.92518 
2656 8 -1 9.01169 4.71909 10.0524 
2442 6 -1 11.7599 7.23308 10.0312 
2210 5 3 11.3191 5.19425 8.45119 
2393 6 -1 1.02257 11.3234 7.61623 
2638 8 -1 2.41876 11.1548 7.75679 
2502 6 -1 2.3634 8.27264 9.691 
2352 6 -1 2.65317 10.3109 8.80279 
2287 5 3 1.86357 10.103 8.16883 
2612 7 1 2.30805 9.19673 10.3937 
2384 6 -1 5.05178 11.3046 8.43031 
2387 6 -1 4.39683 9.12046 8.44246 
2524 6 -1 6.91369 11.0194 7.41362 
2641 8 -1 7.14174 11.5513 9.49502 
2212 5 3 3.97399 9.74195 9.12714 
2483 6 -1 11.5073 8.13121 8.86841 
2376 6 -1 9.17922 7.89127 8.26406 
2364 6 -1 10.0056 10.7977 7.26456 
2294 5 3 9.59634 10.0314 9.03931 
2245 5 3 9.80119 7.76643 9.99504 
2235 5 3 11.4756 7.99279 7.90997 
2238 5 3 13.0708 11.0295 7.49476 
2444 6 -1 12.1086 8.55329 7.28452 
2266 5 3 13.8267 8.45304 9.46081 
2517 6 -1 13.1757 7.68391 8.86788 
2593 7 1 13.9127 10.0286 8.4453 
2525 6 -1 13.0671 11.4197 9.77622 
2264 5 3 1.1646 12.4806 7.9904 
2471 6 -1 6.46612 12.9102 7.23099 
2214 5 3 7.38621 12.9792 6.79497 
2599 7 1 7.84914 14.6786 8.01584 
2482 6 -1 5.27852 13.2663 7.7418 
2219 5 3 7.55966 12.4915 9.22224 
2617 7 1 6.41398 13.288 9.24904 
2305 6 -1 4.8312 11.4826 10.1399 
2613 7 1 12.1141 11.8931 9.68126 
2456 6 -1 3.00984 12.364 9.08613 
2206 5 3 3.35478 13.397 9.1978 
2272 5 3 13.0032 12.4163 7.16449 
2553 6 -1 4.60748 10.0551 10.2857 
2285 5 3 8.85767 3.79624 10.4207 
2248 5 3 6.82308 4.83036 10.4647 
2228 5 3 7.95785 14.5691 20.1817 
2634 8 -1 2.30597 0.553446 12.1516 
2326 6 -1 3.9146 2.17162 10.6656 
2670 8 -1 7.71812 13.4081 19.9296 
2500 6 -1 6.96202 0.327449 10.586 
2510 6 -1 5.40155 11.6472 20.7142 
2616 7 1 5.55611 1.06472 10.8174 
2466 6 -1 7.43924 1.11408 11.1107 
2365 6 -1 6.09235 0.412158 13.4689 
2412 6 -1 5.08367 0.619398 12.9271 
2583 7 1 5.94523 3.20771 10.6489 
2649 8 -1 6.0766 13.9857 20.4387 
2370 6 -1 10.6434 2.4552 12.9009 
2252 5 3 7.40877 1.61197 12.0995 
2623 7 1 10.8847 1.201 12.2677 
2257 5 3 9.19402 2.64059 12.5873 
2427 6 -1 11.4117 14.8711 12.1167 
2223 5 3 3.70508 5.08647 12.2424 
2630 8 -1 3.15467 6.64618 11.0582 
2298 6 -1 4.28727 4.80717 11.3322 
2334 6 -1 4.55975 5.63596 12.2936 
2440 6 -1 5.06471 6.00293 11.0381 
2531 6 -1 6.45924 12.9727 20.0595 
2304 6 -1 4.93006 6.42208 13.0002 
2540 6 -1 6.61283 7.31519 13.8829 
2457 6 -1 7.73951 4.70404 10.7899 
2563 6 -1 8.14341 6.90904 13.0616 
2216 5 3 9.26174 6.45109 13.089 
2547 6 -1 9.90734 7.27432 13.2294 
2464 6 -1 11.1661 4.33885 13.2125 
2487 6 -1 2.8053 8.22754 12.4268 
2342 6 -1 1.46763 10.072 12.4749 
2409 6 -1 2.98149 8.70856 11.0323 
2270 5 3 1.20538 7.86665 11.313 
2258 5 3 1.15952 7.5637 13.5727 
2443 6 -1 5.42895 7.72977 11.5967 
2268 5 3 7.42309 8.51963 12.6281 
2283 5 3 4.63857 11.0336 13.6284 
2311 6 -1 4.57971 8.386 11.3147 
2406 6 -1 5.14376 10.6833 10.9242 
2627 8 -1 4.38615 9.71622 12.0189 
2582 7 1 6.01104 8.03759 10.5173 
2411 6 -1 11.1936 9.07797 10.9719 
2303 6 -1 8.87075 7.62669 13.4241 
2516 6 -1 8.50766 7.34336 11.3096 
2233 5 3 8.04702 9.93653 11.0028 
2222 5 3 9.49356 8.25094 12.7491 
2601 7 1 8.48851 9.74083 13.725 
2662 8 -1 5.41996 13.0356 20.3955 
2660 8 -1 2.44577 14.6839 11.1056 
2265 5 3 2.92156 13.3717 11.9384 
2358 6 -1 7.20236 14.5125 20.8267 
2667 8 -1 6.34792 13.291 12.2675 
2619 7 1 6.3825 11.329 11.382 
2230 5 3 4.18561 13.059 12.639 
2232 5 3 6.61924 12.3321 11.1759 
2410 6 -1 7.14543 13.3954 10.9412 
2247 5 3 6.76567 14.2844 11.6767 
2274 5 3 4.15588 0.186034 13.2959 
2300 6 -1 7.54157 14.531 11.0089 
2242 5 3 8.98317 12.3955 13.5476 
2569 6 -1 9.15568 11.5041 13.1504 
2494 6 -1 9.48972 11.2965 12.0495 
2302 6 -1 4.67167 13.6255 13.6885 
2513 6 -1 10.7229 13.0957 11.5741 
2263 5 3 12.1683 11.6918 13.4537 
2345 6 -1 13.9074 11.832 10.6557 
2335 6 -1 3.23872 0.562312 16.5034 
2590 7 1 4.44503 1.53732 14.7893 
2651 8 -1 3.19769 7.22645 16.5471 
2441 6 -1 4.85498 4.11247 15.4584 
2395 6 -1 5.52053 3.69727 14.4975 
2433 6 -1 1.52822 9.51502 15.2777 
2595 7 1 2.89033 10.309 14.4472 
2580 7 1 2.76269 8.15586 14.6683 
2437 6 -1 7.04463 8.52339 18.5611 
2605 7 1 7.07314 9.05718 15.4339 
2388 6 -1 4.13037 7.61748 15.9353 
2512 6 -1 8.22695 9.39384 14.7471 
2363 6 -1 2.85295 12.338 15.1051 
2575 6 -1 4.88822 12.2251 13.6855 
2529 6 -1 6.71383 3.81053 23.2702 
2480 6 -1 4.38442 3.24413 24.3018 
2588 7 1 7.4264 3.41928 22.5324 
2636 8 -1 6.93586 2.45577 23.2818 
2467 6 -1 7.02256 1.17134 23.1013 
2503 6 -1 8.30568 1.91452 22.9669 
2439 6 -1 8.97246 14.8532 23.4376 
2644 8 -1 8.74331 2.16797 21.4958 
2476 6 -1 10.5092 14.1195 23.1864 
2336 6 -1 8.08725 3.18708 23.7883 
2416 6 -1 9.07704 4.49521 24.5846 
2306 6 -1 4.5973 11.631 21.3372 
2369 6 -1 4.7397 12.5537 22.3731 
2509 6 -1 11.0341 8.97463 31.426 
2414 6 -1 6.57239 13.539 22.6096 
2356 6 -1 8.09508 13.1846 23.768 
2604 7 1 5.82299 14.1941 23.4627 
2436 6 -1 7.85266 11.5735 22.9047 
2378 6 -1 4.83846 12.8109 21.2819 
2579 7 1 11.8802 8.42759 31.2624 
2542 6 -1 6.79279 12.4995 23.2024 
2555 6 -1 7.51382 11.8208 21.1472 
2646 8 -1 5.92748 12.6906 22.1223 
2581 7 1 6.8938 13.44 23.8208 
2495 6 -1 6.91473 12.8597 21.7135 
2292 5 3 6.00143 13.4394 21.332 
2403 6 -1 7.28841 9.09944 30.6536 
2343 6 -1 5.53992 12.9935 23.0886 
2522 6 -1 6.8379 14.8195 22.6352 
2622 7 1 4.4595 13.9373 21.806 
2537 6 -1 8.04852 13.9265 21.2923 
2574 6 -1 5.89079 7.37604 31.0874 
2390 6 -1 7.73309 14.8101 21.9227 
2417 6 -1 7.82045 14.0814 24.1167 
2664 8 -1 7.74605 2.07214 26.8643 
2313 6 -1 6.89711 1.15591 26.5386 
2373 6 -1 6.68825 2.10073 27.0454 
2346 6 -1 6.84061 13.9706 25.9436 
2322 6 -1 6.94056 0.529071 24.5107 
2520 6 -1 6.15588 2.4423 24.8712 
2526 6 -1 5.92261 0.291825 24.8336 
2459 6 -1 7.58469 14.5876 25.2297 
2428 6 -1 9.96601 2.10311 24.2265 
2552 6 -1 10.5632 2.32816 27.0947 
2534 6 -1 9.2644 3.08176 25.0784 
2308 6 -1 8.31915 2.49003 24.5634 
2639 8 -1 9.7131 1.09538 24.8571 
2632 8 -1 7.29385 2.36855 24.9457 
2505 6 -1 8.10367 2.06797 25.7197 
2221 5 3 9.1359 1.90775 25.0945 
2468 6 -1 6.18549 4.38723 24.0963 
2429 6 -1 7.74615 4.00698 24.6116 
2386 6 -1 8.30738 3.96146 26.491 
2255 5 3 8.31341 4.75973 25.3611 
2515 6 -1 9.71521 4.31566 25.4853 
2535 6 -1 10.503 6.74283 27.7256 
2577 7 1 13.1307 7.44855 27.4375 
2530 6 -1 12.6991 6.89219 26.4674 
2330 6 -1 11.9736 5.79965 25.4827 
2635 8 -1 14.1661 6.64084 26.6426 
2398 6 -1 13.8859 5.51014 26.7227 
2497 6 -1 11.1061 6.17091 26.8172 
2532 6 -1 10.5665 8.35872 27.4894 
2668 8 -1 13.2532 8.80685 27.3274 
2368 6 -1 13.3915 7.9326 26.5135 
2578 7 1 14.4071 8.77196 27.3188 
2307 6 -1 12.2823 8.29785 27.5619 
2499 6 -1 11.3154 8.4075 28.1953 
2289 5 3 4.2716 0.406977 22.5715 
2251 5 3 6.61254 14.4684 24.9175 
2383 6 -1 5.87713 13.7697 24.4043 
2548 6 -1 3.61815 14.9819 21.6931 
2310 6 -1 7.00392 5.39595 28.9734 
2528 6 -1 7.92044 6.7887 29.3275 
2493 6 -1 11.2081 7.0406 30.7716 
2339 6 -1 10.0099 6.47015 30.6503 
2560 6 -1 8.93727 5.24987 30.558 
2576 6 -1 7.56721 7.47638 30.9874 
2449 6 -1 7.39398 3.96867 27.924 
2647 8 -1 11.4281 6.03342 30.0309 
2337 6 -1 9.43002 5.82677 29.4131 
2446 6 -1 11.3089 6.90533 29.3294 
2626 8 -1 8.73745 6.5452 28.7889 
2405 6 -1 11.0635 7.74101 31.4816 
2394 6 -1 8.29053 5.97534 29.9521 
2460 6 -1 13.7561 6.86165 29.1111 
2399 6 -1 12.2718 6.337 29.135 
2642 8 -1 11.8594 8.85829 29.5673 
2566 6 -1 5.43583 12.3558 29.1657 
2489 6 -1 7.59912 7.91059 29.2604 
2382 6 -1 9.7716 7.5613 31.2174 
2637 8 -1 10.2182 9.58783 29.4575 
2631 8 -1 12.0315 9.20498 28.4855 
2447 6 -1 9.73248 8.94643 30.1679 
2536 6 -1 8.58531 8.32797 28.5087 
2243 5 3 9.37018 8.49586 31.3331 
2413 6 -1 9.38715 7.97282 30.2336 
2628 8 -1 9.59428 7.9638 28.9508 
2207 5 3 11.6086 7.95188 30.1901 
2349 6 -1 10.4685 8.3012 30.7887 
2533 6 -1 10.2201 8.76725 28.4938 
2478 6 -1 10.6469 8.53703 29.5657 
2333 6 -1 11.0127 9.3982 30.2256 
2397 6 -1 9.90793 10.2218 30.5309 
2550 6 -1 7.17559 10.0087 30.0871 
2323 6 -1 8.12436 9.61714 30.3588 
2543 6 -1 9.87451 10.6827 29.1976 
2648 8 -1 8.74991 10.6559 30.6529 
2490 6 -1 8.29976 8.16614 30.3897 
2650 8 -1 9.67596 11.1763 31.2579 
2665 8 -1 12.8941 10.2371 30.9996 
2527 6 -1 13.9033 7.8921 27.9448 
2341 6 -1 10.0102 4.89804 31.4987 
2486 6 -1 11.4419 7.92753 29.077 
2400 6 -1 12.4036 7.33067 30.6995 
2546 6 -1 13.045 7.76208 31.4187 
2624 8 -1 5.8652 2.3717 33.0501 
2666 8 -1 4.60131 4.5688 34.569 
2454 6 -1 7.58715 6.96542 31.9823 
2296 6 -1 8.94887 5.69526 31.9425 
2301 6 -1 11.7283 11.2583 32.213 
2498 6 -1 9.71797 6.92138 32.8865 
2453 6 -1 11.0781 4.80489 33.6088 
2594 7 1 9.56323 6.99378 33.997 
2518 6 -1 10.3282 6.09323 33.3887 
2226 5 3 9.55083 5.87546 32.7032 
2422 6 -1 8.58084 6.66298 32.4336 
2564 6 -1 8.51127 5.95125 33.3215 
2375 6 -1 8.5638 7.08556 33.5265 
2654 8 -1 7.81755 6.43881 34.0074 
2372 6 -1 11.3299 6.5573 32.5376 
2645 8 -1 10.5191 5.69516 32.3409 
2353 6 -1 11.464 5.60682 34.1874 
2572 6 -1 8.25344 8.50556 31.754 
2424 6 -1 8.0985 7.77402 32.6615 
2633 8 -1 9.001 7.72806 34.4756 
2340 6 -1 9.11576 7.70277 32.3733 
2519 6 -1 9.44102 9.57774 33.0074 
2408 6 -1 8.90568 9.25759 31.9237 
2565 6 -1 10.3436 9.64428 32.637 
2316 6 -1 10.3539 8.22706 33.0407 
2391 6 -1 10.4714 9.37534 33.65 
2359 6 -1 9.16848 10.6558 33.0127 
2485 6 -1 9.31953 11.4813 32.1749 
2640 8 -1 9.29034 8.96066 34.0408 
2573 6 -1 12.1633 7.80943 32.1254 
2423 6 -1 11.4772 9.48198 33.1488 
2452 6 -1 13.3881 10.1256 32.3388 
2625 8 -1 3.83377 7.19191 38.6464 
2371 6 -1 2.65448 7.05598 38.4934 
2652 8 -1 4.94285 7.91282 38.8301 
2357 6 -1 4.09372 10.1077 38.8064 
2611 7 1 2.44 9.40455 37.9161 
2392 6 -1 2.54319 8.26939 37.8294 
2658 8 -1 3.51687 8.22861 38.2581 
2418 6 -1 4.34204 8.03949 39.6409 
2587 7 1 4.33249 8.75347 38.8238 
2267 5 3 5.93436 8.4963 37.7744 
2669 8 -1 8.21549 8.87874 38.0886 
2556 6 -1 11.2625 8.81482 38.1082 
2244 5 3 10.0063 8.36786 38.2318 
2562 6 -1 10.4121 8.98291 37.311 
2415 6 -1 9.70623 7.41508 38.6141 
2309 6 -1 10.9882 10.2618 36.9289 
2362 6 -1 10.3294 9.24975 38.8991 
2462 6 -1 10.4476 10.2137 37.9705 
2431 6 -1 9.08585 10.3755 37.8994 
2250 5 3 9.95729 9.54715 35.6567 
2338 6 -1 9.54311 9.04113 36.6258 
2380 6 -1 8.54031 9.17595 37.1944 
2332 6 -1 11.9456 9.26896 37.0135 
2655 8 -1 8.81255 10.5159 38.9948 
2425 6 -1 5.57029 4.23661 38.2634 
2319 6 -1 5.44924 2.80673 39.7513 
2320 6 -1 5.72633 3.09026 38.5562 
2458 6 -1 6.41901 3.36781 39.4393 
2507 6 -1 6.19247 3.43433 40.5659 
2381 6 -1 4.29971 2.34587 39.7106 
2348 6 -1 4.13767 3.33216 39.2808 
2421 6 -1 2.3079 7.14727 40.0016 
2508 6 -1 2.64948 3.79458 39.9334 
2568 6 -1 5.44514 5.36512 40.3979 
2514 6 -1 4.11315 3.44728 40.727 
2586 7 1 4.60781 4.60416 39.3349 
2472 6 -1 3.70664 5.23551 40.7442 
2327 6 -1 2.33234 10.1121 40.4734 
2504 6 -1 3.59124 7.55329 40.6654 
2448 6 -1 1.5482 8.51649 38.0796 
2589 7 1 3.20156 7.8507 39.4569 
2295 6 -1 2.2894 10.0518 38.7862 
2347 6 -1 2.4472 8.26729 40.1517 
2470 6 -1 5.66121 9.89495 39.0009 
2501 6 -1 6.67044 8.15257 40.4235 
2557 6 -1 7.08246 9.91127 40.9955 
2657 8 -1 6.81036 10.0938 38.1307 
2491 6 -1 3.57389 10.0697 40.7749 
2544 6 -1 3.5882 8.72329 39.8849 
2419 6 -1 6.91949 9.2948 39.0614 
2521 6 -1 6.51675 8.12666 38.7063 
2389 6 -1 4.57656 9.03137 40.5179 
2217 5 3 7.5232 9.84299 40.0302 
2474 6 -1 7.47236 10.3986 39.0519 
2643 8 -1 8.13439 9.50649 40.8988 
2314 6 -1 7.57576 8.77237 39.9431 
2297 6 -1 8.59863 8.3061 39.6822 
2481 6 -1 7.79867 8.2581 38.8816 
2360 6 -1 9.09577 8.54979 38.8205 
ITEM: TIMESTEP
2100
ITEM: NUMBER OF ATOMS
470
ITEM: BOX BOUNDS pp pp ff
0 15
0 15
0 42
ITEM: ATOMS id type q x y z 
2299 6 -1 2.73531 1.19816 1.25361 
2261 5 3 1.05989 1.33851 2.32513 
2396 6 -1 1.98152 2.96162 2.0713 
2549 6 -1 7.67733 14.8808 1.98683 
2278 5 3 5.5018 1.22624 1.19757 
2205 5 3 7.32506 1.40793 3.03193 
2239 5 3 5.22372 3.08302 3.15844 
2585 7 1 8.11642 0.109302 0.982346 
2288 5 3 10.5057 0.0514445 1.8362 
2231 5 3 7.80908 2.86332 3.49803 
2602 7 1 11.2751 2.2927 1.28923 
2618 7 1 13.87 2.25434 1.30364 
2603 7 1 1.37247 4.41109 1.15253 
2608 7 1 2.08179 5.58666 2.78577 
2229 5 3 1.08936 7.70121 2.84826 
2450 6 -1 1.16105 7.6102 1.7565 
2488 6 -1 3.91303 4.92345 2.423 
2213 5 3 5.31523 6.04911 2.1361 
2402 6 -1 5.7534 5.10858 2.15512 
2209 5 3 7.07995 5.37609 2.2675 
2260 5 3 6.92788 7.25175 2.65514 
2461 6 -1 10.4718 5.08379 2.80332 
2271 5 3 9.4102 5.16149 2.79932 
2538 6 -1 8.28965 4.91187 2.29179 
2227 5 3 11.3237 5.7097 2.57478 
2606 7 1 8.14683 5.47281 3.18628 
2445 6 -1 13.0486 6.36351 2.58404 
2203 5 3 3.21156 7.98053 1.97642 
2284 5 3 0.77508 8.68907 2.29844 
2331 6 -1 2.80312 8.85492 2.24529 
2492 6 -1 2.23344 11.4898 3.64917 
2354 6 -1 1.77746 8.66089 2.34566 
2609 7 1 3.55377 8.9521 3.22763 
2621 7 1 6.93673 7.62425 1.32662 
2215 5 3 6.53431 11.2485 2.17448 
2246 5 3 6.0026 10.6803 3.59286 
2204 5 3 10.7265 7.99029 2.4798 
2290 5 3 13.5229 9.17188 1.04111 
2455 6 -1 13.6888 8.21869 1.81383 
2473 6 -1 13.7838 9.33412 2.14061 
2256 5 3 13.0136 10.509 2.46001 
2614 7 1 1.0304 10.9053 1.86408 
2607 7 1 1.66454 13.5572 1.20664 
2567 6 -1 5.49849 11.3876 2.92863 
2249 5 3 7.97844 13.5589 1.7285 
2561 6 -1 4.19579 12.179 1.20461 
2438 6 -1 3.97042 14.354 2.98623 
2551 6 -1 7.35122 13.0012 2.87868 
2350 6 -1 9.82069 13.3732 3.29854 
2234 5 3 8.16177 13.0594 3.79247 
2596 7 1 13.167 13.2055 2.52792 
2329 6 -1 13.0092 12.0802 3.36569 
2511 6 -1 0.104039 0.867294 3.9766 
2475 6 -1 2.82766 0.271641 3.71486 
2479 6 -1 6.53152 1.26564 3.82668 
2253 5 3 5.46925 2.8756 5.18996 
2597 7 1 5.55831 3.6586 6.67925 
2344 6 -1 9.84442 1.69085 5.78951 
2401 6 -1 8.98959 1.7514 4.81487 
2404 6 -1 10.7149 3.22614 4.36194 
2374 6 -1 9.39426 0.18832 5.04244 
2201 5 3 7.69213 2.48783 5.29996 
2496 6 -1 8.66062 2.25199 5.67718 
2291 5 3 10.4475 1.14933 5.05893 
2653 8 -1 11.453 3.04713 5.45574 
2385 6 -1 14.1853 5.48471 3.73679 
2407 6 -1 0.406545 7.03504 5.00277 
2286 5 3 1.30063 3.9186 6.73967 
2558 6 -1 3.49997 4.20869 4.08881 
2451 6 -1 6.76127 5.41998 3.43464 
2312 6 -1 3.55454 6.09006 3.96416 
2506 6 -1 9.87356 5.17984 3.93222 
2361 6 -1 9.82753 5.90678 5.76626 
2545 6 -1 9.12957 5.85473 3.6496 
2610 7 1 8.77493 6.01103 5.95765 
2379 6 -1 11.4833 3.51359 3.40875 
2220 5 3 10.6814 6.86457 6.15893 
2434 6 -1 10.4488 3.86121 5.17134 
2324 6 -1 9.25413 5.41781 6.7634 
2318 6 -1 13.1612 7.42419 6.40144 
2211 5 3 13.0579 7.62979 3.32399 
2240 5 3 1.88882 7.80459 4.47047 
2663 8 -1 1.96792 8.11459 3.48813 
2523 6 -1 2.59743 10.2275 5.13459 
2279 5 3 1.74063 10.456 5.55893 
2598 7 1 2.81977 8.0379 4.10897 
2208 5 3 1.86054 10.8872 6.68739 
2241 5 3 3.57775 9.52865 6.5132 
2539 6 -1 4.83717 11.2279 3.88467 
2377 6 -1 5.97232 8.29727 4.58822 
2592 7 1 6.53786 10.4779 6.05297 
2282 5 3 4.2616 10.9044 4.83893 
2430 6 -1 7.21975 10.192 3.88419 
2420 6 -1 4.73906 10.1113 5.19456 
2570 6 -1 7.2583 8.35907 6.15201 
2317 6 -1 10.4278 8.03534 4.45462 
2321 6 -1 8.70347 10.7963 5.02158 
2435 6 -1 10.5104 10.1477 4.57193 
2477 6 -1 10.3457 7.67644 6.74531 
2355 6 -1 10.6289 10.9275 3.54589 
2559 6 -1 9.10098 9.34072 4.50314 
2225 5 3 9.03832 8.09371 5.99305 
2584 7 1 11.5326 10.1018 4.98721 
2615 7 1 12.7199 8.17184 4.74085 
2276 5 3 13.4825 10.8688 4.1186 
2463 6 -1 1.18637 11.6275 3.48834 
2262 5 3 4.42843 13.8584 4.02862 
2484 6 -1 5.09695 13.7651 5.45635 
2224 5 3 6.11774 13.8634 4.91873 
2620 7 1 3.45932 12.9869 4.80446 
2315 6 -1 6.0929 13.9267 5.94624 
2280 5 3 5.65491 13.1134 6.61356 
2214 5 3 7.52474 13.4637 6.40003 
2218 5 3 8.67193 11.8927 5.00725 
2571 6 -1 10.7132 11.5954 4.64349 
2366 6 -1 9.42615 14.1106 4.51414 
2237 5 3 8.43788 13.8179 4.43594 
2236 5 3 9.66046 10.8148 4.42367 
2281 5 3 10.65 13.4737 6.92489 
2293 5 3 10.2775 12.13 3.89165 
2465 6 -1 12.979 13.3834 4.27392 
2629 8 -1 11.6347 12.4057 5.05509 
2269 5 3 1.2342 1.89984 9.70463 
2325 6 -1 5.76076 3.35018 7.79693 
2351 6 -1 5.85337 3.07945 9.09508 
2426 6 -1 9.58472 2.37439 8.15094 
2554 6 -1 8.34264 1.78635 6.93585 
2600 7 1 8.55326 1.05877 8.57706 
2591 7 1 9.45772 1.05175 7.87334 
2661 8 -1 0.545065 7.05973 7.65435 
2273 5 3 1.60773 4.86108 9.4932 
2328 6 -1 2.94581 4.04378 8.92912 
2277 5 3 3.49274 5.62485 8.05367 
2275 5 3 3.91887 4.19277 9.70312 
2432 6 -1 3.66577 6.48746 7.26991 
2659 8 -1 6.75583 5.17007 9.14903 
2367 6 -1 6.88609 4.37306 8.1693 
2469 6 -1 5.89721 7.21887 8.58298 
2248 5 3 6.7264 4.97897 10.2487 
2541 6 -1 7.92289 6.44822 7.79345 
2259 5 3 10.013 7.47602 7.65698 
2656 8 -1 8.87574 5.09524 9.47075 
2427 6 -1 11.262 0.390562 10.4274 
2285 5 3 9.08101 3.79051 10.3896 
2409 6 -1 2.9224 9.03545 10.2237 
2442 6 -1 11.9501 6.35087 10.4887 
2210 5 3 10.8934 5.71771 9.3049 
2638 8 -1 2.36376 10.6672 7.54694 
2502 6 -1 1.9625 8.80858 9.36606 
2352 6 -1 3.09414 10.1555 8.23174 
2287 5 3 1.12771 10.282 8.24427 
2612 7 1 2.3906 9.77094 9.69405 
2202 5 3 6.44233 9.94381 7.24725 
2254 5 3 6.86438 7.27643 6.65178 
2387 6 -1 4.5992 8.75318 8.02441 
2524 6 -1 6.35911 10.9913 7.2439 
2212 5 3 4.1835 9.76762 8.61655 
2553 6 -1 5.23066 9.71527 9.67624 
2376 6 -1 9.07577 7.90534 8.24832 
2364 6 -1 10.5349 10.6839 6.66021 
2294 5 3 9.70415 10.0933 9.08203 
2245 5 3 10.7806 7.81884 9.4153 
2483 6 -1 11.7629 7.56345 9.05697 
2235 5 3 12.1595 7.91346 8.10079 
2238 5 3 13.4615 11.0599 7.41745 
2444 6 -1 11.8408 8.79462 7.72198 
2266 5 3 14.4015 8.83413 9.87282 
2517 6 -1 13.9998 7.74792 9.5144 
2593 7 1 13.8084 10.5696 8.19519 
2583 7 1 5.81307 3.0792 10.0881 
2393 6 -1 1.32001 11.5335 8.1177 
2264 5 3 0.707368 11.9448 7.39818 
2456 6 -1 3.21581 13.0327 9.71737 
2206 5 3 2.45423 13.9787 8.77497 
2384 6 -1 4.18088 11.974 8.22199 
2641 8 -1 7.13689 11.4326 9.53198 
2471 6 -1 6.71554 12.9256 6.58757 
2482 6 -1 4.94266 13.7886 7.32916 
2617 7 1 6.20717 13.2905 8.83881 
2305 6 -1 5.27349 11.5472 9.97179 
2599 7 1 8.46173 14.2314 7.75556 
2219 5 3 7.02079 12.562 9.04214 
2525 6 -1 13.344 11.8634 8.91041 
2613 7 1 12.7116 12.16 9.8662 
2272 5 3 12.8699 13.1391 6.67478 
2500 6 -1 7.03183 14.9871 10.2067 
2616 7 1 5.92471 0.965939 10.2447 
2440 6 -1 5.03532 5.5945 10.4795 
2634 8 -1 2.66 0.778687 12.094 
2326 6 -1 4.04642 1.51403 11.0179 
2466 6 -1 7.17771 0.781814 10.9112 
2365 6 -1 6.68107 0.755715 13.5896 
2412 6 -1 4.67985 0.307305 13.0945 
2555 6 -1 7.53727 12.9001 19.9362 
2252 5 3 6.93078 1.43918 11.7685 
2274 5 3 4.18423 14.4285 13.3726 
2228 5 3 8.80789 14.1532 18.2507 
2370 6 -1 10.319 1.19086 12.9108 
2623 7 1 11.5476 1.54766 11.7994 
2257 5 3 9.39425 2.76008 12.1616 
2662 8 -1 5.80438 13.0465 19.8395 
2223 5 3 3.35097 5.00251 12.056 
2630 8 -1 2.89505 6.62607 10.9402 
2298 6 -1 3.64441 4.92603 10.8704 
2334 6 -1 4.67815 5.61446 12.1915 
2292 5 3 6.95704 13.9093 20.0577 
2304 6 -1 4.79702 6.3062 13.1639 
2540 6 -1 6.16308 7.87335 13.6699 
2457 6 -1 7.59059 4.58298 10.7734 
2563 6 -1 7.87127 6.95416 13.0949 
2216 5 3 8.76426 6.12529 12.7902 
2547 6 -1 9.69772 7.26999 12.8531 
2464 6 -1 11.1357 4.49864 13.2007 
2516 6 -1 8.0193 7.6662 11.5075 
2487 6 -1 2.81795 8.32973 12.2942 
2342 6 -1 1.30731 9.85068 12.3677 
2531 6 -1 7.04243 14.127 18.8387 
2270 5 3 1.51563 7.86311 11.0935 
2345 6 -1 13.915 12.1127 10.9391 
2258 5 3 1.3189 7.9325 13.2926 
2443 6 -1 5.36858 7.48475 11.4187 
2268 5 3 7.32835 8.73431 12.3367 
2283 5 3 4.66059 11.6878 13.8064 
2311 6 -1 4.68251 8.19294 10.8396 
2406 6 -1 5.12246 10.4886 10.9807 
2627 8 -1 4.16503 9.40339 12.0198 
2411 6 -1 12.5004 9.23668 10.8144 
2303 6 -1 8.54006 7.694 13.3654 
2233 5 3 8.44615 10.1998 11.2216 
2222 5 3 10.2623 8.10859 12.2542 
2601 7 1 8.23762 9.50092 14.2365 
2495 6 -1 7.68701 14.0058 20.8432 
2548 6 -1 2.56794 2.21915 17.9526 
2660 8 -1 2.64202 14.2918 11.303 
2582 7 1 6.25109 7.61745 10.6417 
2265 5 3 2.28118 13.3548 11.4439 
2378 6 -1 5.64428 12.6346 20.9491 
2575 6 -1 4.89698 12.647 13.4645 
2667 8 -1 6.46614 13.0692 12.1397 
2289 5 3 3.08655 1.45461 18.7289 
2619 7 1 6.49658 10.5259 11.2249 
2230 5 3 4.45251 13.4757 12.081 
2232 5 3 6.82184 12.7548 11.2224 
2410 6 -1 7.54409 13.4611 11.1273 
2247 5 3 7.13323 14.5523 11.3901 
2302 6 -1 4.96014 13.7409 13.5842 
2537 6 -1 8.41573 14.5726 20.2651 
2300 6 -1 7.75681 14.3305 10.6085 
2242 5 3 9.12678 12.6417 13.4008 
2569 6 -1 9.13468 11.573 13.0818 
2494 6 -1 9.84842 11.4914 11.764 
2670 8 -1 7.54727 12.9086 18.8885 
2649 8 -1 6.16768 14.6425 19.4705 
2513 6 -1 11.3209 13.1519 11.1438 
2263 5 3 12.5181 11.1011 12.7784 
2510 6 -1 6.4636 12.2191 20.2306 
2335 6 -1 2.97111 0.686725 17.3636 
2590 7 1 3.51502 1.94435 15.3042 
2395 6 -1 5.87217 4.02784 14.6903 
2651 8 -1 2.30437 7.84408 16.694 
2441 6 -1 4.71827 3.69757 14.7844 
2433 6 -1 0.802657 9.98931 15.298 
2595 7 1 2.7931 10.3821 12.6317 
2580 7 1 2.66597 8.3896 14.6944 
2605 7 1 7.26617 9.01267 15.327 
2388 6 -1 3.85639 6.91202 15.2928 
2512 6 -1 8.57948 9.03948 15.129 
2363 6 -1 2.93695 13.8599 14.635 
2358 6 -1 6.66628 0.161246 20.3146 
2572 6 -1 8.78557 8.19555 31.3872 
2480 6 -1 5.25228 3.42444 24.0854 
2588 7 1 7.98127 3.35156 22.5582 
2636 8 -1 6.51046 2.37871 22.5561 
2467 6 -1 6.64895 1.28722 23.5618 
2503 6 -1 8.34548 2.21242 22.8842 
2644 8 -1 7.64098 1.19928 21.6255 
2336 6 -1 7.72902 2.95493 23.8166 
2428 6 -1 10.1708 2.05238 24.3668 
2529 6 -1 6.91848 3.38704 22.0273 
2468 6 -1 6.39358 4.45319 23.8254 
2306 6 -1 4.70415 12.1008 22.2336 
2369 6 -1 6.67942 11.5535 22.8622 
2414 6 -1 7.35454 13.6092 21.9804 
2604 7 1 5.7583 14.1256 23.3036 
2542 6 -1 8.06444 13.068 21.3162 
2646 8 -1 6.86706 12.684 21.9247 
2581 7 1 7.42453 13.4441 23.6267 
2452 6 -1 12.4916 9.27774 31.4783 
2343 6 -1 6.62945 13.3383 22.7694 
2522 6 -1 6.58943 14.8173 21.6494 
2622 7 1 5.86128 12.2433 21.9805 
2383 6 -1 6.60409 13.9156 23.969 
2439 6 -1 8.49889 14.896 23.8314 
2476 6 -1 11.6533 13.4707 21.9602 
2356 6 -1 8.35003 13.815 23.1393 
2436 6 -1 8.03964 12.2574 22.0384 
2566 6 -1 5.35404 14.7247 30.1602 
2405 6 -1 10.7789 7.92185 31.0738 
2390 6 -1 7.81076 0.100634 21.199 
2417 6 -1 7.56188 14.5172 23.4588 
2313 6 -1 7.49646 0.706123 25.9242 
2373 6 -1 6.94648 1.79478 26.1438 
2322 6 -1 7.08556 0.342218 24.2196 
2520 6 -1 6.37149 2.99932 24.4241 
2526 6 -1 6.1845 14.7569 24.9962 
2632 8 -1 7.24688 2.92221 24.9625 
2664 8 -1 8.15348 2.41227 26.4533 
2552 6 -1 10.8996 3.67501 28.1276 
2534 6 -1 9.37597 3.02684 24.7441 
2308 6 -1 7.90299 1.06051 24.7634 
2639 8 -1 9.15328 0.88932 23.7528 
2505 6 -1 8.79465 1.25818 25.6477 
2221 5 3 9.36414 1.51556 24.7983 
2449 6 -1 6.87668 3.70383 27.7973 
2416 6 -1 10.2526 3.82349 25.0598 
2429 6 -1 7.21574 3.86763 24.2583 
2386 6 -1 8.11746 3.19332 25.4507 
2255 5 3 8.40033 3.60307 24.2908 
2515 6 -1 10.2788 4.41302 26.0968 
2535 6 -1 10.1713 6.05969 27.2344 
2497 6 -1 11.3357 5.99087 26.613 
2577 7 1 12.8228 7.24642 27.3447 
2530 6 -1 12.8611 6.82792 26.3415 
2330 6 -1 12.1076 5.02101 25.5482 
2635 8 -1 14.0491 6.97834 26.5361 
2398 6 -1 13.2302 5.96534 27.0149 
2532 6 -1 9.81467 7.07438 28.0388 
2668 8 -1 13.8458 8.05732 26.8663 
2368 6 -1 13.3236 7.86486 25.8774 
2578 7 1 14.2515 8.61347 28.0687 
2307 6 -1 12.7627 8.35816 27.1122 
2527 6 -1 14.644 7.6795 27.8145 
2346 6 -1 6.91639 13.0965 24.7649 
2251 5 3 7.12972 14.3537 24.7516 
2459 6 -1 8.1976 14.2927 24.8905 
2574 6 -1 5.89958 8.33038 31.2043 
2310 6 -1 7.35099 5.60357 29.0998 
2528 6 -1 7.87064 7.25091 29.0752 
2493 6 -1 10.6563 6.96429 30.7689 
2339 6 -1 10.1331 6.41718 30.0385 
2560 6 -1 8.42903 5.29105 29.2523 
2576 6 -1 7.54429 7.59841 30.7769 
2337 6 -1 9.36868 6.01533 29.5893 
2626 8 -1 9.04952 7.34902 28.5805 
2394 6 -1 8.458 6.37351 29.1512 
2486 6 -1 11.7045 7.60219 29.2751 
2647 8 -1 11.1169 6.00509 30.1684 
2446 6 -1 11.3881 6.55758 29.3161 
2460 6 -1 13.5648 7.78231 29.8208 
2399 6 -1 12.1344 5.71021 30.0646 
2400 6 -1 11.861 6.99886 30.2181 
2403 6 -1 7.63463 7.94954 29.8392 
2550 6 -1 7.03717 9.02719 29.9859 
2509 6 -1 11.2907 9.02374 31.2202 
2489 6 -1 6.83667 8.58255 27.9318 
2382 6 -1 9.57496 7.454 30.9314 
2637 8 -1 10.4396 9.47882 28.6041 
2447 6 -1 9.65681 9.78287 30.1259 
2536 6 -1 7.90527 9.3449 28.164 
2243 5 3 9.05483 8.8742 30.578 
2413 6 -1 9.52522 7.68809 29.7958 
2628 8 -1 9.54904 8.21125 28.8302 
2349 6 -1 10.1025 8.53857 30.5047 
2533 6 -1 10.473 8.51841 27.9442 
2478 6 -1 10.2928 8.70075 29.3938 
2333 6 -1 10.9278 9.4158 29.9085 
2397 6 -1 10.6947 10.5169 30.6233 
2323 6 -1 8.52898 10.1542 29.7379 
2543 6 -1 10.3224 10.7442 28.7309 
2648 8 -1 9.32824 10.7726 29.8648 
2490 6 -1 8.58473 7.81959 30.3288 
2650 8 -1 10.0155 11.484 30.8648 
2579 7 1 11.9028 7.92604 31.0557 
2499 6 -1 11.9298 8.31648 28.1374 
2642 8 -1 12.3923 8.28832 29.7084 
2631 8 -1 12.2573 9.27099 28.3814 
2207 5 3 11.2225 8.46479 30.2685 
2665 8 -1 13.2202 9.45765 30.1835 
2485 6 -1 8.93159 11.2345 31.2769 
2437 6 -1 6.99141 7.52995 21.1968 
2624 8 -1 5.6505 2.70769 34.6835 
2666 8 -1 5.91045 5.516 33.8387 
2454 6 -1 7.49751 7.31107 31.9044 
2296 6 -1 8.41592 5.89202 31.8588 
2498 6 -1 9.63479 6.68551 33.3507 
2453 6 -1 10.6978 4.32567 33.8635 
2594 7 1 9.07616 6.43628 34.229 
2518 6 -1 9.67494 5.29415 33.3899 
2226 5 3 9.02736 5.90246 32.7449 
2422 6 -1 8.13746 6.61499 32.6372 
2564 6 -1 7.85784 5.58975 32.8608 
2375 6 -1 8.07046 6.70913 33.7198 
2654 8 -1 6.68346 6.28023 33.1051 
2645 8 -1 10.0469 6.2255 32.2955 
2341 6 -1 10.227 5.05862 31.705 