ITEM: TIMESTEP
5100
ITEM: NUMBER OF ATOMS
12
ITEM: BOX BOUNDS pp pp ff
0 40
0 40
0 42
ITEM: ATOMS id type x y z 
4802 7 36.7235 2.47863 1.99977 
4806 7 9.25072 4.15642 14.1006 
4803 7 4.58605 9.4185 12.7045 
4804 7 39.4377 4.13171 19.7078 
4809 8 34.2274 12.7616 18.848 
4811 8 27.9637 6.428 34.166 
4805 7 12.704 5.80913 40.6987 
4801 7 1.8477 37.4695 12.6196 
4812 8 31.9186 31.8798 18.6779 
4810 8 26.9663 23.3765 34.0564 
4808 8 39.9035 26.9139 37.9675 
4807 8 10.2808 34.609 40.6039 
ITEM: TIMESTEP
5200
ITEM: NUMBER OF ATOMS
12
ITEM: BOX BOUNDS pp pp ff
0 40
0 40
0 42
ITEM: ATOMS id type x y z 
4802 7 36.4264 3.29413 2.59523 
4806 7 8.27786 4.38068 12.7283 
4803 7 5.54104 9.26386 12.8845 
4804 7 0.200063 5.62858 19.0682 
4809 8 34.1377 13.4598 18.2121 
4811 8 29.4672 6.19786 32.4884 
4805 7 12.4557 7.12448 40.7476 
4801 7 1.32626 37.109 13.7723 
4812 8 33.0514 31.7502 18.6595 
4810 8 27.4416 23.5189 33.188 
4808 8 38.4079 27.368 38.6683 
4807 8 10.8584 33.956 39.3969 
ITEM: TIMESTEP
5300
ITEM: NUMBER OF ATOMS
12
ITEM: BOX BOUNDS pp pp ff
0 40
0 40
0 42
ITEM: ATOMS id type x y z 
4802 7 35.7425 2.94478 3.1686 
4809 8 34.0206 14.3633 17.537 
4806 7 7.87194 4.88851 11.0905 
4803 7 4.65887 9.73889 12.8596 
4804 7 0.164499 7.58386 18.5494 
4811 8 30.5303 6.23605 30.7622 
4805 7 12.3316 8.09222 40.7341 
4801 7 0.757106 36.5257 14.7976 
4812 8 34.1546 31.8787 18.9031 
4810 8 28.1046 23.5433 32.4128 
4808 8 37.0606 27.8644 39.1096 
4807 8 10.3921 32.8915 37.3623 
ITEM: TIMESTEP
5400
ITEM: NUMBER OF ATOMS
12
ITEM: BOX BOUNDS pp pp ff
0 40
0 40
0 42
ITEM: ATOMS id type x y z 
4802 7 35.0166 1.54041 3.50134 
4809 8 33.5628 15.3329 16.5256 
4806 7 7.88423 5.67871 9.36453 
4803 7 4.10155 9.47383 12.5604 
4804 7 0.277645 9.38196 17.6602 
4811 8 31.0282 6.75487 29.7673 
4805 7 12.3965 9.00789 40.7731 
4801 7 39.9747 35.6786 15.8677 
4812 8 35.2587 31.8287 19.265 
4810 8 28.7478 23.4943 31.6235 
4808 8 35.8222 28.2614 39.4266 
4807 8 9.74351 31.857 35.3973 
ITEM: TIMESTEP
5500
ITEM: NUMBER OF ATOMS
12
ITEM: BOX BOUNDS pp pp ff
0 40
0 40
0 42
ITEM: ATOMS id type x y z 
4802 7 33.8486 0.336113 3.70515 
4809 8 32.9509 16.1416 15.4961 
4806 7 8.08801 6.96765 8.27659 
4803 7 4.0444 9.38957 11.6617 
4804 7 39.8928 10.4036 17.3418 
4811 8 31.2015 7.50865 29.1723 
4805 7 12.6639 9.74183 40.7917 
4801 7 39.4922 34.6625 16.8888 
4812 8 36.3449 31.3794 19.5083 
4810 8 29.292 23.6519 30.6259 
4808 8 34.8647 28.3586 39.4405 
4807 8 9.01369 30.5035 33.8638 
ITEM: TIMESTEP
5600
ITEM: NUMBER OF ATOMS
12
ITEM: BOX BOUNDS pp pp ff
0 40
0 40
0 42
ITEM: ATOMS id type x y z 
4809 8 32.1547 16.6019 14.594 
4806 7 7.53862 5.98306 7.88223 
4803 7 4.34725 9.86547 12.3122 
4804 7 38.602 10.7979 17.7408 
4811 8 31.286 8.14382 28.3777 
4805 7 13.1358 10.379 40.8309 
4802 7 32.4236 39.5435 4.07126 
4801 7 39.2241 33.0577 17.7713 
4812 8 37.2717 30.8501 19.7022 
4810 8 29.6045 23.5841 30.1797 
4808 8 34.0786 28.5842 39.3282 
4807 8 8.6496 28.8734 33.379 
ITEM: TIMESTEP
5700
ITEM: NUMBER OF ATOMS
12
ITEM: BOX BOUNDS pp pp ff
0 40
0 40
0 42
ITEM: ATOMS id type x y z 
4809 8 31.2605 16.7494 13.7705 
4806 7 7.04202 6.39659 7.23812 
4803 7 4.59535 9.6899 11.7432 
4804 7 37.4117 11.222 18.3408 
4811 8 31.3895 8.72234 27.6485 
4805 7 13.6022 10.7371 40.88 
4802 7 33.8828 39.2635 2.37038 
4801 7 39.7416 31.1163 18.3618 
4812 8 38.1806 30.4493 19.9294 
4810 8 29.8031 23.2597 29.665 
4808 8 33.3484 28.8189 39.1123 
4807 8 8.32736 27.2834 32.9145 
ITEM: TIMESTEP
5800
ITEM: NUMBER OF ATOMS
12
ITEM: BOX BOUNDS pp pp ff
0 40
0 40
0 42
ITEM: ATOMS id type x y z 
4809 8 30.114 16.5236 12.7863 
4806 7 6.52496 6.30186 7.51309 
4803 7 5.16849 10.243 11.3064 
4804 7 36.4033 11.7757 19.1264 
4811 8 31.6783 9.40706 27.0284 
4805 7 14.185 10.9196 40.8999 
4802 7 34.6138 39.1776 3.14767 
4801 7 39.4004 30.0283 17.9904 
4812 8 39.2148 30.0657 20.0816 
4810 8 30.0152 22.8221 29.3508 
4808 8 32.6435 29.2797 38.9398 
4807 8 7.97409 25.8184 32.4131 
ITEM: TIMESTEP
5900
ITEM: NUMBER OF ATOMS
12
ITEM: BOX BOUNDS pp pp ff
0 40
0 40
0 42
ITEM: ATOMS id type x y z 
4809 8 29.7923 16.4635 12.7477 
4806 7 5.04726 6.24824 6.37126 
4803 7 4.92941 10.4871 11.1643 
4804 7 35.4674 12.4615 19.9135 
4811 8 32.1603 10.1556 26.5397 
4805 7 14.5997 10.3561 40.8764 
4801 7 38.9502 29.3971 17.4331 
4812 8 0.29948 29.7784 20.0302 
4802 7 33.8897 39.3304 3.39467 
4810 8 29.9972 22.314 29.0583 
4808 8 31.3403 30.0004 39.2033 
4807 8 7.77468 24.3238 32.0012 
ITEM: TIMESTEP
6000
ITEM: NUMBER OF ATOMS
12
ITEM: BOX BOUNDS pp pp ff
0 40
0 40
0 42
ITEM: ATOMS id type x y z 
4809 8 30.0431 16.152 12.8556 
4806 7 3.713 6.03669 4.99328 
4803 7 5.45079 10.2197 11.5516 
4804 7 34.4399 13.0447 20.6458 
4811 8 32.6729 10.9806 26.223 
4805 7 14.9057 9.64773 40.9272 
4801 7 38.3415 28.9649 16.7066 
4812 8 1.29415 29.2729 19.9781 
4802 7 32.8706 38.2085 1.38005 
4810 8 29.8307 22.1014 28.6967 
4808 8 30.2756 30.5444 39.5139 
4807 8 7.64612 22.669 31.6088 
ITEM: TIMESTEP
6100
ITEM: NUMBER OF ATOMS
12
ITEM: BOX BOUNDS pp pp ff
0 40
0 40
0 42
ITEM: ATOMS id type x y z 
4806 7 2.56606 5.58546 3.77186 
4803 7 5.26614 9.98921 11.3037 
4809 8 30.7216 16.1475 12.9905 
4811 8 33.1211 11.7379 25.9024 
4804 7 33.4813 13.4568 21.6591 
4805 7 15.1499 8.91213 40.8995 
4802 7 31.7719 38.3845 3.08432 
4812 8 2.17294 28.6828 19.7996 
4801 7 38.0564 29.1008 16.0658 
4810 8 29.8071 21.9891 28.5166 
4807 8 7.40616 20.8626 31.264 
4808 8 29.2547 31.1627 39.6422 
ITEM: TIMESTEP
6200
ITEM: NUMBER OF ATOMS
12
ITEM: BOX BOUNDS pp pp ff
0 40
0 40
0 42
ITEM: ATOMS id type x y z 
4806 7 1.46661 5.58563 3.23 
4803 7 5.01212 9.90994 11.2315 
4809 8 30.7267 15.3709 13.0872 
4811 8 33.5298 12.4532 25.5128 
4804 7 32.4612 13.8651 22.6195 
4805 7 15.4547 8.05548 40.8504 
4807 8 7.17177 19.0478 30.766 
4802 7 31.7357 38.6779 3.50016 
4812 8 3.23371 28.2515 19.7155 
4801 7 37.9395 28.805 15.2576 
4810 8 30.2194 21.8434 28.8932 
4808 8 28.1605 31.8355 39.727 
ITEM: TIMESTEP
6300
ITEM: NUMBER OF ATOMS
12
ITEM: BOX BOUNDS pp pp ff
0 40
0 40
0 42
ITEM: ATOMS id type x y z 
4806 7 0.986729 7.12687 2.74461 
4803 7 5.18086 10.0632 11.7228 
4809 8 30.7258 15.3906 13.0795 
4811 8 33.8989 13.1524 25.1501 
4804 7 31.4221 14.3507 23.1806 
4805 7 15.8248 7.34925 40.8234 
4807 8 6.93669 17.2851 30.2971 
4802 7 30.8279 38.6727 3.37519 
4812 8 4.45563 28.0827 19.7193 
4801 7 39.3088 27.9405 13.7518 
4810 8 30.6402 21.536 29.2357 
4808 8 27.1191 32.6808 39.9116 
ITEM: TIMESTEP
6400
ITEM: NUMBER OF ATOMS
12
ITEM: BOX BOUNDS pp pp ff
0 40
0 40
0 42
ITEM: ATOMS id type x y z 
4806 7 0.337604 8.96003 2.18973 
4803 7 5.83112 9.58612 12.0017 
4809 8 30.7787 15.6466 14.6743 
4811 8 34.5243 13.661 24.786 
4804 7 30.17 14.7983 23.5352 
4805 7 16.0906 6.69068 40.809 
4807 8 6.95275 15.6201 29.8405 
4802 7 30.4356 38.5412 4.01882 
4812 8 5.82129 28.3053 19.8375 
4801 7 0.584587 27.2949 12.0703 
4810 8 31.001 21.2702 29.6036 
4808 8 26.053 33.657 40.374 
ITEM: TIMESTEP
6500
ITEM: NUMBER OF ATOMS
12
ITEM: BOX BOUNDS pp pp ff
0 40
0 40
0 42
ITEM: ATOMS id type x y z 
4806 7 39.9954 9.4457 1.15655 
4803 7 6.13047 10.6364 12.2659 
4809 8 30.1408 16.0598 15.3146 
4811 8 35.4234 14.1511 24.3824 
4804 7 28.8874 15.2795 23.8327 
4805 7 16.3538 6.08701 40.8612 
4807 8 6.87841 14.0271 29.3076 
4802 7 30.9589 38.1115 4.43016 
4812 8 7.47224 28.5138 20.0828 
4801 7 1.34597 26.266 10.3633 
4810 8 31.2748 20.8522 29.8429 
4808 8 26.0844 33.9331 40.51 
ITEM: TIMESTEP
6600
ITEM: NUMBER OF ATOMS
12
ITEM: BOX BOUNDS pp pp ff
0 40
0 40
0 42
ITEM: ATOMS id type x y z 
4806 7 0.721729 9.02313 1.81942 
4803 7 6.22957 10.2415 11.9536 
4809 8 29.3083 16.0202 14.2797 
4811 8 36.4745 14.7437 24.0645 
4804 7 27.6027 15.7319 24.2393 
4805 7 17.3953 5.90511 40.6361 
4807 8 6.95069 12.5751 29.0601 
4802 7 31.7884 38.2859 4.4995 
4812 8 9.04837 28.5415 20.2382 
4801 7 2.02876 26.0937 9.00931 
4810 8 31.4403 20.3785 30.0679 
4808 8 26.1149 33.7011 39.8334 
ITEM: TIMESTEP
6700
ITEM: NUMBER OF ATOMS
12
ITEM: BOX BOUNDS pp pp ff
0 40
0 40
0 42
ITEM: ATOMS id type x y z 
4806 7 1.01237 8.39419 2.09179 
4803 7 6.70075 10.9365 12.0645 
4809 8 28.3849 15.715 13.1027 
4811 8 37.505 15.4065 23.9272 
4804 7 26.417 16.3303 24.348 
4805 7 18.519 5.60414 40.7148 
4807 8 8.44903 12.0581 29.7062 
4810 8 31.5232 19.9383 30.0683 
4802 7 31.871 38.7576 4.15971 
4801 7 2.35235 24.8203 7.76503 
4812 8 9.3945 28.5397 20.5811 
4808 8 24.2223 32.9776 39.7539 
ITEM: TIMESTEP
6800
ITEM: NUMBER OF ATOMS
12
ITEM: BOX BOUNDS pp pp ff
0 40
0 40
0 42
ITEM: ATOMS id type x y z 
4806 7 0.481939 7.82916 1.92149 
4803 7 6.77149 11.9069 11.9372 
4809 8 27.5128 17.159 13.7962 
4811 8 38.2025 16.1645 23.7335 
4804 7 25.23 17.0548 24.1404 
4805 7 19.8015 5.34334 40.6478 
4807 8 10.035 11.3139 30.3752 
4802 7 31.8848 37.7624 3.77114 
4801 7 2.52367 23.3346 7.02308 
4812 8 9.72588 28.7284 20.8478 
4810 8 30.7645 20.0863 30.2671 
4808 8 22.1809 32.2247 39.6562 
ITEM: TIMESTEP
6900
ITEM: NUMBER OF ATOMS
12
ITEM: BOX BOUNDS pp pp ff
0 40
0 40
0 42
ITEM: ATOMS id type x y z 
4806 7 0.138059 7.38284 3.44634 
4803 7 6.5089 11.0486 12.2645 
4809 8 26.9163 17.9776 14.6931 
4811 8 38.8358 16.8377 23.7309 
4804 7 23.7949 17.6961 23.8549 
4805 7 21.1399 5.11305 40.6164 
4807 8 11.8883 10.5391 31.1222 
4802 7 31.3972 37.7887 3.14806 
4801 7 2.628 22.0182 7.64445 
4812 8 10.0034 28.9252 20.9373 
4810 8 29.3818 20.8885 30.6357 
4808 8 20.1155 31.4 39.6173 
ITEM: TIMESTEP
7000
ITEM: NUMBER OF ATOMS
12
ITEM: BOX BOUNDS pp pp ff
0 40
0 40
0 42
ITEM: ATOMS id type x y z 
4806 7 0.562792 5.74148 6.12659 
4803 7 6.77915 10.9102 10.7693 
4809 8 26.1381 18.4836 15.2002 
4811 8 39.5743 17.4578 23.8925 
4804 7 22.946 17.7593 23.4921 
4805 7 21.9712 4.31639 40.5774 
4807 8 13.7267 9.18052 30.9488 
4802 7 30.0383 38.392 2.00497 
4801 7 3.2995 22.1067 8.61156 
4810 8 28.3431 21.7033 30.8916 
4812 8 10.3906 29.4112 21.1311 
4808 8 18.2862 30.6463 39.6799 
ITEM: TIMESTEP
7100
ITEM: NUMBER OF ATOMS
12
ITEM: BOX BOUNDS pp pp ff
0 40
0 40
0 42
ITEM: ATOMS id type x y z 
4806 7 0.797885 4.14219 8.21372 
4803 7 6.62901 10.6226 9.73269 
4809 8 25.4337 18.9468 15.5467 
4804 7 22.5802 17.6422 23.0377 
4811 8 0.0628581 17.8326 24.816 
4807 8 15.3583 7.58372 29.9058 
4805 7 22.7041 3.57963 40.5466 
4802 7 29.7222 39.4097 1.1484 
4801 7 3.54958 21.6247 9.03123 
4812 8 10.7662 30.03 21.3727 
4810 8 27.7173 22.1527 30.6404 
4808 8 16.6057 29.7932 39.7405 
ITEM: TIMESTEP
7200
ITEM: NUMBER OF ATOMS
12
ITEM: BOX BOUNDS pp pp ff
0 40
0 40
0 42
ITEM: ATOMS id type x y z 
4806 7 0.319845 2.15573 9.4424 
4803 7 6.51933 9.87709 9.30893 
4809 8 24.8576 19.2431 15.8887 
4804 7 22.1756 17.7262 22.4238 
4811 8 0.120653 17.8558 26.6121 
4807 8 16.9627 6.10163 28.8034 
4805 7 23.6787 3.18905 40.6135 
4802 7 29.2359 38.9874 1.34232 
4801 7 3.65816 22.3725 9.95006 
4812 8 11.0069 30.7013 21.4943 
4810 8 26.6014 22.3118 29.8302 
4808 8 14.9879 28.9043 39.878 
ITEM: TIMESTEP
7300
ITEM: NUMBER OF ATOMS
12
ITEM: BOX BOUNDS pp pp ff
0 40
0 40
0 42
ITEM: ATOMS id type x y z 
4806 7 1.0077 1.40858 10.2263 
4803 7 6.73313 10.63 9.58932 
4809 8 24.4123 19.4346 16.6683 
4804 7 21.7594 17.8149 21.6558 
4811 8 0.261903 18.0392 28.219 
4807 8 18.5497 4.58793 27.7791 
4805 7 24.8656 2.63397 40.7119 
4802 7 29.4687 37.3274 2.10557 
4801 7 2.35739 23.4739 9.60554 
4812 8 11.1404 31.5062 21.5934 
4810 8 25.4346 22.7014 28.9404 
4808 8 13.0353 28.3199 39.9872 
ITEM: TIMESTEP
7400
ITEM: NUMBER OF ATOMS
12
ITEM: BOX BOUNDS pp pp ff
0 40
0 40
0 42
ITEM: ATOMS id type x y z 
4806 7 1.12798 2.3114 10.9084 
4803 7 7.31305 10.7383 9.23018 
4809 8 23.7058 19.7911 17.8783 
4804 7 21.2312 17.8058 20.9654 
4811 8 0.631259 18.5755 29.4556 
4807 8 20.1466 2.96486 26.6192 
4805 7 26.0946 1.92715 40.4332 
4802 7 30.5594 36.7871 2.90634 
4801 7 0.316887 25.1129 8.36877 
4812 8 11.2275 32.1679 21.7322 
4810 8 24.2356 23.5407 28.0264 
4808 8 11.0679 28.0817 40.167 
ITEM: TIMESTEP
7500
ITEM: NUMBER OF ATOMS
12
ITEM: BOX BOUNDS pp pp ff
0 40
0 40
0 42
ITEM: ATOMS id type x y z 
4804 7 20.583 17.7175 20.4779 
4806 7 2.43021 2.94548 11.6449 
4803 7 7.1331 10.6232 9.76316 
4811 8 1.32208 19.5935 30.6743 
4807 8 21.4166 1.49257 25.4177 
4805 7 27.4653 1.22322 40.2448 
4809 8 22.8328 20.5116 18.9741 
4802 7 30.7281 36.9914 3.08223 
4801 7 0.500044 27.7412 7.59578 
4812 8 11.3904 32.818 21.7685 
4810 8 22.9583 24.3929 27.3311 
4808 8 9.15295 27.6146 40.8037 
ITEM: TIMESTEP
7600
ITEM: NUMBER OF ATOMS
12
ITEM: BOX BOUNDS pp pp ff
0 40
0 40
0 42
ITEM: ATOMS id type x y z 
4804 7 19.9514 17.6877 19.9738 
4806 7 4.41039 3.18567 12.2395 
4803 7 7.28539 10.752 10.1437 
4807 8 21.6282 0.58511 25.8146 
4805 7 28.9682 0.395717 40.6921 
4809 8 21.8592 21.333 19.4593 
4802 7 31.3962 36.5899 3.50392 
4801 7 0.168008 29.7557 6.59591 
4812 8 11.6492 33.5468 21.7777 
4810 8 21.6063 25.4262 26.6978 
4811 8 2.04094 20.3736 31.8073 
4808 8 7.40941 26.8759 40.3057 
ITEM: TIMESTEP
7700
ITEM: NUMBER OF ATOMS
12
ITEM: BOX BOUNDS pp pp ff
0 40
0 40
0 42
ITEM: ATOMS id type x y z 
4804 7 19.505 17.6323 19.4698 
4806 7 6.37836 3.25248 13.0405 
4803 7 6.61577 10.2688 10.1754 
4809 8 21.1648 22.0189 19.7472 
4802 7 31.9833 35.5405 3.27049 
4801 7 0.213122 30.7436 5.31253 
4812 8 12.0506 33.34 22.8722 
4810 8 22.233 27.1557 26.1297 
4805 7 30.5867 39.5642 40.1412 
4811 8 2.66822 20.7949 32.6448 
4808 8 5.94968 26.1113 39.9436 
4807 8 21.4489 39.8171 26.3811 
ITEM: TIMESTEP
7800
ITEM: NUMBER OF ATOMS
12
ITEM: BOX BOUNDS pp pp ff
0 40
0 40
0 42
ITEM: ATOMS id type x y z 
4804 7 19.2052 17.6494 18.9352 
4806 7 8.36706 3.37195 14.1427 
4803 7 5.6989 10.4226 9.16408 
4809 8 20.7909 22.7851 19.8818 
4802 7 31.0645 36.4101 5.51856 
4801 7 0.680314 31.0294 5.09522 
4812 8 12.1949 33.2149 23.8961 
4807 8 21.3348 39.0795 27.0041 
4810 8 22.7952 28.7602 26.5435 
4805 7 32.1558 38.766 38.88 
4811 8 3.31171 21.2559 33.2861 
4808 8 4.54041 25.5488 39.6751 
ITEM: TIMESTEP
7900
ITEM: NUMBER OF ATOMS
12
ITEM: BOX BOUNDS pp pp ff
0 40
0 40
0 42
ITEM: ATOMS id type x y z 
4804 7 18.9108 17.6635 18.2962 
4806 7 10.1186 3.12452 14.7927 
4803 7 5.12505 10.4744 9.15433 
4809 8 20.1917 23.2783 20.0826 
4802 7 30.9086 36.915 6.7842 
4801 7 0.350675 30.3409 7.38035 
4812 8 12.4227 33.2295 24.9915 
4807 8 21.3992 38.1776 27.6528 
4810 8 23.5199 30.2637 26.9225 
4805 7 33.577 38.4105 37.3777 
4811 8 4.07481 21.754 33.8815 
4808 8 3.12466 24.9424 39.6911 
ITEM: TIMESTEP
8000
ITEM: NUMBER OF ATOMS
12
ITEM: BOX BOUNDS pp pp ff
0 40
0 40
0 42
ITEM: ATOMS id type x y z 
4804 7 18.755 17.7601 17.5903 
4806 7 11.7606 1.32663 15.133 
4803 7 5.71124 11.2874 8.68486 
4809 8 19.1931 23.2779 20.383 
4802 7 31.3396 36.9425 7.70143 
4801 7 0.112564 29.8172 9.65316 
4812 8 12.749 33.3998 26.2672 
4807 8 21.2348 36.791 27.2359 
4810 8 24.3852 31.7307 27.4528 
4805 7 34.8359 38.2427 35.9197 
4811 8 5.09567 22.3307 34.2967 
4808 8 1.67128 24.2851 39.7492 
ITEM: TIMESTEP
8100
ITEM: NUMBER OF ATOMS
12
ITEM: BOX BOUNDS pp pp ff
0 40
0 40
0 42
ITEM: ATOMS id type x y z 
4803 7 7.13841 12.1873 9.3047 
4804 7 18.8222 17.8275 17.2102 
4806 7 13.5343 39.6395 15.5313 
4801 7 1.36634 30.4121 9.2706 
4802 7 31.6038 36.9401 8.809 
4809 8 18.1842 22.7605 21.2553 
4810 8 25.6289 32.6558 28.1873 
4812 8 13.3045 33.4003 27.5586 
4807 8 20.8357 35.509 26.8534 
4811 8 6.00403 22.7967 34.8054 
4805 7 35.9859 37.9592 34.5404 
4808 8 0.431413 23.6084 39.9146 
ITEM: TIMESTEP
8200
ITEM: NUMBER OF ATOMS
12
ITEM: BOX BOUNDS pp pp ff
0 40
0 40
0 42
ITEM: ATOMS id type x y z 
4803 7 7.7487 12.7903 11.1693 
4804 7 19.1455 17.9349 16.9603 
4806 7 15.3163 37.8057 15.7599 
4801 7 2.01088 31.6328 7.97122 
4802 7 32.2721 36.816 9.36445 
4809 8 17.3928 20.9608 21.4385 
4810 8 26.6204 33.4072 28.8011 
4812 8 13.956 33.2059 28.8895 
4807 8 20.4542 34.3895 26.3608 
4811 8 6.82195 23.4177 35.3586 
4805 7 36.84 37.4512 33.2279 
4808 8 39.2658 22.5894 40.3033 
ITEM: TIMESTEP
8300
ITEM: NUMBER OF ATOMS
12
ITEM: BOX BOUNDS pp pp ff
0 40
0 40
0 42
ITEM: ATOMS id type x y z 
4803 7 8.41541 12.6959 12.1891 
4804 7 19.4875 17.4987 16.1537 
4809 8 16.696 19.1542 21.679 
4806 7 17.1539 35.7799 15.9663 
4801 7 1.4288 32.5296 7.07082 
4802 7 31.4888 36.5061 9.96142 
4810 8 27.4652 34.1562 29.4243 
4812 8 14.8229 32.5173 29.9545 
4807 8 20.0591 33.5319 25.9904 
4811 8 7.81359 23.9232 35.9403 
4805 7 37.4152 36.8267 32.1076 
4808 8 38.3227 23.1985 40.5591 
ITEM: TIMESTEP
8400
ITEM: NUMBER OF ATOMS
12
ITEM: BOX BOUNDS pp pp ff
0 40
0 40
0 42
ITEM: ATOMS id type x y z 
4803 7 8.55464 12.1921 12.1746 
4804 7 19.8372 16.7191 15.3221 
4809 8 15.9479 17.3504 21.9711 
4806 7 18.8945 33.8023 16.0302 
4801 7 0.57834 32.2269 6.7012 
4802 7 30.3324 36.3626 10.0018 
4810 8 28.1067 34.8917 29.996 
4812 8 16.0357 31.1111 30.5711 
4807 8 19.7498 32.6981 25.6164 
4811 8 8.8019 23.9761 36.7295 
4805 7 37.9903 36.5656 31.1079 
4808 8 37.4719 24.4422 39.6986 
ITEM: TIMESTEP
8500
ITEM: NUMBER OF ATOMS
12
ITEM: BOX BOUNDS pp pp ff
0 40
0 40
0 42
ITEM: ATOMS id type x y z 
4804 7 20.1033 15.959 14.5352 
4803 7 8.58313 12.6615 12.2441 
4809 8 15.4337 15.6266 22.4851 
4806 7 20.588 31.8695 16.1046 
4801 7 0.142256 33.3052 6.49731 
4802 7 28.9953 36.4698 9.55698 
4810 8 28.7113 35.4154 30.6764 
4812 8 17.4485 29.996 31.2333 
4807 8 19.3889 31.9081 25.3481 
4811 8 9.83218 24.408 37.0186 
4805 7 38.7046 36.6022 30.3824 
4808 8 36.7519 25.8605 38.9763 
ITEM: TIMESTEP
8600
ITEM: NUMBER OF ATOMS
12
ITEM: BOX BOUNDS pp pp ff
0 40
0 40
0 42
ITEM: ATOMS id type x y z 
4804 7 19.6867 15.2213 14.1559 
4803 7 8.6427 13.3665 11.879 
4809 8 16.0738 15.8076 24.29 
4806 7 22.043 30.0198 14.9344 
4801 7 0.534039 33.8562 6.51246 
4802 7 28.6568 36.4312 8.72698 
4810 8 29.3324 35.8067 31.3601 
4812 8 17.9378 29.3951 31.404 
4807 8 19.0429 31.0761 25.2432 
4811 8 10.9214 25.1134 37.3824 
4805 7 39.3226 36.7171 29.9834 
4808 8 36.088 27.4253 38.5964 
ITEM: TIMESTEP
8700
ITEM: NUMBER OF ATOMS
12
ITEM: BOX BOUNDS pp pp ff
0 40
0 40
0 42
ITEM: ATOMS id type x y z 
4804 7 18.2821 14.7544 14.6659 
4803 7 9.07268 15.1864 12.4511 
4809 8 16.4051 15.9034 26.226 
4806 7 23.3873 28.0997 13.1022 
4801 7 0.472445 34.2657 6.75929 
4802 7 28.5715 36.3961 7.74763 
4810 8 30.1567 36.021 31.953 
4812 8 17.896 28.9801 31.3688 
4807 8 18.7769 30.7872 25.8497 
4811 8 11.8918 26.1066 37.7985 
4805 7 39.8372 36.919 29.5187 
4808 8 35.4319 28.5923 38.1651 
ITEM: TIMESTEP
8800
ITEM: NUMBER OF ATOMS
12
ITEM: BOX BOUNDS pp pp ff
0 40
0 40
0 42
ITEM: ATOMS id type x y z 
4804 7 16.7788 14.4992 15.1096 
4803 7 9.67834 16.9802 12.9609 
4809 8 16.2636 15.3635 28.0509 
4806 7 24.7459 26.2877 11.2559 
4801 7 0.778799 35.57 6.9386 
4802 7 28.7815 36.3602 6.35293 
4810 8 31.11 36.0762 32.6554 
4812 8 17.7007 28.3879 31.2765 
4807 8 18.6148 31.0067 26.1875 
4811 8 12.4645 27.1294 37.8488 
4805 7 0.157685 37.1762 28.9136 
4808 8 34.8417 29.7481 37.7433 
ITEM: TIMESTEP
8900
ITEM: NUMBER OF ATOMS
12
ITEM: BOX BOUNDS pp pp ff
0 40
0 40
0 42
ITEM: ATOMS id type x y z 
4804 7 15.1495 14.2338 15.4155 
4803 7 10.3915 18.7347 13.4688 
4809 8 16.2578 14.59 29.7529 
4806 7 26.356 24.6268 9.39588 
4801 7 0.972345 36.9883 6.21451 
4802 7 27.8581 36.0504 4.84916 
4810 8 32.127 36.0279 33.3035 
4812 8 17.4289 27.6139 31.3024 
4807 8 19.0284 31.9548 26.3066 
4811 8 12.939 27.9336 37.9735 
4805 7 0.0231853 36.9986 28.3496 
4808 8 34.463 30.9781 37.3495 
ITEM: TIMESTEP
9000
ITEM: NUMBER OF ATOMS
12
ITEM: BOX BOUNDS pp pp ff
0 40
0 40
0 42
ITEM: ATOMS id type x y z 
4804 7 13.5509 13.8912 15.7041 
4809 8 16.1238 13.986 31.4163 
4806 7 28.3344 23.678 8.16607 
4801 7 1.24475 38.5134 5.30915 
4803 7 11.1877 20.4643 14.183 
4802 7 26.4948 36.0791 3.09316 
4810 8 33.1732 35.9265 33.7301 
4812 8 17.2277 26.5854 31.5373 
4807 8 20.0834 33.6673 26.2798 
4811 8 13.2125 28.5869 38.0134 
4805 7 39.9324 36.5548 28.1852 
4808 8 34.1724 32.0076 37.0325 
ITEM: TIMESTEP
9100
ITEM: NUMBER OF ATOMS
12
ITEM: BOX BOUNDS pp pp ff
0 40
0 40
0 42
ITEM: ATOMS id type x y z 
4804 7 12.029 13.6398 15.9728 
4809 8 15.9098 13.4729 33.3558 
4802 7 25.1287 36.816 1.5962 
4806 7 29.8094 23.0388 6.69016 
4801 7 1.30786 39.7164 4.09505 
4803 7 11.9963 22.1601 15.0741 
4807 8 21.0068 35.3615 26.3197 
4805 7 0.0482444 36.1201 27.9865 
4812 8 17.6731 25.8609 31.9327 
4810 8 34.1453 35.8037 34.2313 
4811 8 13.541 29.0224 38.0508 
4808 8 33.8992 32.9271 36.9311 
ITEM: TIMESTEP
9200
ITEM: NUMBER OF ATOMS
12
ITEM: BOX BOUNDS pp pp ff
0 40
0 40
0 42
ITEM: ATOMS id type x y z 
4801 7 1.11168 0.546623 2.7537 
4804 7 10.6188 13.578 16.2079 
4809 8 15.5921 12.8637 35.333 
4802 7 25.6911 37.3654 1.16094 
4806 7 30.1364 23.6538 5.42354 
4803 7 12.6778 24.0709 14.8394 
4807 8 21.8247 37.0584 26.53 
4805 7 0.350286 35.7785 27.7926 
4812 8 19.2299 25.1648 32.7951 
4810 8 34.5132 36.5346 35.1247 
4811 8 13.7315 29.1122 38.1306 
4808 8 33.525 33.7606 36.6526 
ITEM: TIMESTEP
9300
ITEM: NUMBER OF ATOMS
12
ITEM: BOX BOUNDS pp pp ff
0 40
0 40
0 42
ITEM: ATOMS id type x y z 
4801 7 0.614699 0.661673 2.07249 
4804 7 9.34121 13.5301 16.2751 
4809 8 14.9993 12.3737 37.5761 
4802 7 25.5882 37.9968 1.60764 
4806 7 30.2472 23.7988 4.17789 
4803 7 13.2607 25.7868 14.2707 
4807 8 22.8832 38.425 26.4053 
4805 7 0.773585 35.4914 27.6083 
4812 8 20.6454 24.1286 33.9518 
4810 8 34.9199 37.3449 35.915 
4811 8 14.2679 28.0871 38.3867 
4808 8 33.1277 34.5409 36.2871 
ITEM: TIMESTEP
9400
ITEM: NUMBER OF ATOMS
12
ITEM: BOX BOUNDS pp pp ff
0 40
0 40
0 42
ITEM: ATOMS id type x y z 
4801 7 0.664463 0.51338 2.68004 
4804 7 8.1655 13.5973 16.2616 
4809 8 14.258 12.1671 39.8119 
4802 7 26.4591 37.8399 1.31323 
4806 7 29.888 23.186 4.00602 
4803 7 13.9417 27.534 13.7196 
4807 8 23.8249 39.5787 26.2618 
4805 7 1.31904 35.1906 27.4732 
4812 8 22.1625 23.2637 35.2081 
4810 8 35.0286 38.2162 36.8076 
4811 8 14.935 26.1141 38.9658 
4808 8 33.0549 35.5177 36.3341 
ITEM: TIMESTEP
9500
ITEM: NUMBER OF ATOMS
12
ITEM: BOX BOUNDS pp pp ff
0 40
0 40
0 42
ITEM: ATOMS id type x y z 
4801 7 0.883361 1.00763 3.09948 
4804 7 6.96822 13.7755 16.1194 
4809 8 13.3011 12.0513 40.025 
4807 8 23.46 1.06291 27.6921 
4802 7 26.4095 37.1918 2.24246 
4806 7 28.7597 24.0758 3.14667 
4803 7 14.8565 29.3934 13.1164 
4805 7 1.90207 34.7267 27.4456 
4812 8 23.6469 22.3311 36.4399 
4810 8 35.1933 39.251 37.5806 
4811 8 15.5785 24.0483 39.5735 
4808 8 33.7457 36.2589 36.8957 
ITEM: TIMESTEP
9600
ITEM: NUMBER OF ATOMS
12
ITEM: BOX BOUNDS pp pp ff
0 40
0 40
0 42
ITEM: ATOMS id type x y z 
4801 7 0.428317 1.36084 2.95307 
4804 7 5.84865 14.1136 15.9728 
4807 8 23.2788 2.74929 29.1616 
4810 8 35.3632 0.259265 38.1951 
4809 8 12.4147 11.895 37.8552 
4802 7 27.1595 37.6197 2.52793 
4806 7 27.2117 23.9203 1.78514 
4803 7 15.9243 31.3572 12.504 
4805 7 2.3463 34.1367 27.4395 
4812 8 25.063 21.3886 37.5561 
4811 8 16.0655 22.2383 40.3719 
4808 8 34.7561 36.3239 37.5063 
ITEM: TIMESTEP
9700
ITEM: NUMBER OF ATOMS
12
ITEM: BOX BOUNDS pp pp ff
0 40
0 40
0 42
ITEM: ATOMS id type x y z 
4801 7 0.139757 0.772903 2.61635 
4804 7 6.20438 14.2614 16.5424 
4807 8 23.2046 4.42159 30.8058 
4810 8 35.4874 1.22677 38.7201 
4809 8 11.6644 11.9238 35.9656 
4802 7 26.0288 37.4026 1.49636 
4806 7 26.0268 24.3842 1.06268 
4803 7 16.973 33.3142 11.8629 
4805 7 2.81643 33.5641 27.0993 
4812 8 26.3995 20.6795 38.6981 
4811 8 16.4741 20.2508 40.3371 
4808 8 35.884 36.273 38.1986 
ITEM: TIMESTEP
9800
ITEM: NUMBER OF ATOMS
12
ITEM: BOX BOUNDS pp pp ff
0 40
0 40
0 42
ITEM: ATOMS id type x y z 
4804 7 7.19843 14.1477 17.6297 
4807 8 23.0973 6.15253 32.3831 
4810 8 35.4945 2.18006 39.1123 
4809 8 11.7365 11.5326 33.8435 
4811 8 16.8157 18.2167 39.2946 
4802 7 25.393 36.1656 1.16516 
4806 7 25.1159 25.0748 1.14051 
4803 7 18.0662 35.3035 11.4088 
4801 7 1.34931 39.6826 3.83212 
4805 7 3.23956 33.1836 26.4506 
4812 8 27.8574 20.1243 39.6645 
4808 8 36.8147 35.4771 39.0954 
ITEM: TIMESTEP
9900
ITEM: NUMBER OF ATOMS
12
ITEM: BOX BOUNDS pp pp ff
0 40
0 40
0 42
ITEM: ATOMS id type x y z 
4804 7 8.09794 14.1976 18.9477 
4807 8 23.197 8.12756 33.8641 
4810 8 35.6687 3.15103 39.2536 
4809 8 12.1071 10.9664 31.7955 
4812 8 29.3213 19.4898 40.6717 
4811 8 17.0277 16.3578 38.2681 
4802 7 26.259 34.5439 1.08791 
4801 7 2.59944 38.1642 6.04294 
4806 7 24.4392 25.8757 1.17036 
4803 7 19.0573 37.4334 10.8658 
4805 7 3.50967 33.034 25.6778 
4808 8 37.3854 34.5713 40.1441 
ITEM: TIMESTEP
10000
ITEM: NUMBER OF ATOMS
12
ITEM: BOX BOUNDS pp pp ff
0 40
0 40
0 42
ITEM: ATOMS id type x y z 
4804 7 9.05796 13.9814 20.1294 
4809 8 12.3588 10.4443 29.7275 
4807 8 23.4571 10.2542 35.3316 
4810 8 35.8919 4.1841 39.6076 
4811 8 17.3132 14.6751 36.7653 
4812 8 30.518 18.822 40.1129 
4806 7 24.0881 27.0255 1.171 
4802 7 27.4407 34.2308 1.37542 
4801 7 3.7176 36.7944 8.28397 
4803 7 19.9767 39.5327 10.3138 
4805 7 3.51899 32.6725 24.9863 
4808 8 37.9352 33.7836 40.3508 
