ITEM: TIMESTEP
101000
ITEM: NUMBER OF ATOMS
96
ITEM: BOX BOUNDS pp pp ff
0 20
0 20
0 62
ITEM: ATOMS id type q x y z 
3211 5 3 2.16694 1.83652 3.82799 
3222 5 3 16.3396 1.14229 1.0691 
3206 5 3 18.4249 0.451269 1.25343 
3202 5 3 16.0133 4.12416 1.86847 
3217 5 3 17.9114 5.24476 3.59577 
3251 6 -1 3.2004 11.9637 3.36133 
3276 6 -1 12.3287 11.0164 2.4398 
3208 5 3 0.658295 16.4728 1.27828 
3213 5 3 5.2377 14.8108 1.13609 
3209 5 3 4.76514 14.0718 3.50486 
3214 5 3 19.5346 13.7815 1.15414 
3205 5 3 2.324 19.8413 1.14444 
3210 5 3 3.72002 18.3935 1.50945 
3215 5 3 4.85 18.2164 1.29563 
3220 5 3 16.0645 19.2388 1.80322 
3285 6 -1 14.4482 18.412 3.34222 
3224 5 3 16.7774 17.2034 1.97184 
3203 5 3 16.9433 1.96223 4.44319 
3265 6 -1 3.39952 4.5804 5.52495 
3201 5 3 16.6323 5.92911 4.2814 
3216 5 3 19.3615 5.4319 2.95406 
3212 5 3 0.914138 16.4195 5.78212 
3218 5 3 1.61558 0.14923 4.92539 
3219 5 3 3.67254 18.8649 4.06349 
3247 6 -1 1.2617 18.3894 8.54591 
3223 5 3 15.579 18.8957 4.62156 
3207 5 3 16.5145 0.0767043 5.51583 
3221 5 3 18.0314 19.2706 5.24134 
3204 5 3 19.6793 17.9656 5.12031 
3244 6 -1 7.38342 7.945 10.1254 
3292 6 -1 19.3687 17.6583 11.6779 
3263 6 -1 14.9962 0.514594 13.7873 
3261 6 -1 10.9782 5.28954 12.9893 
3262 6 -1 3.88213 4.54842 13.9745 
3259 6 -1 8.47872 7.80287 12.249 
3256 6 -1 19.2663 18.0807 13.1145 
3242 6 -1 18.4015 7.30091 15.2214 
3286 6 -1 9.00264 12.546 18.2629 
3264 6 -1 17.1985 10.4549 19.7675 
3246 6 -1 13.118 16.3169 30.4683 
3249 6 -1 9.1371 9.06502 22.766 
3243 6 -1 6.8604 17.222 17.8129 
3258 6 -1 11.166 15.4841 23.086 
3283 6 -1 8.82644 18.5108 20.6453 
3272 6 -1 14.4483 16.0553 17.8362 
3289 6 -1 16.1842 18.4943 25.5441 
3240 6 -1 2.49671 5.44749 25.1534 
3229 6 -1 8.22245 3.99075 28.0405 
3233 6 -1 9.50079 18.9655 27.038 
3226 6 -1 4.18516 6.98221 30.0599 
3234 6 -1 12.1606 17.8684 28.2989 
3280 6 -1 14.695 11.1483 29.5866 
3271 6 -1 0.75886 13.6366 27.9973 
3257 6 -1 17.5148 12.3009 29.918 
3231 6 -1 7.10346 17.9857 30.2998 
3235 6 -1 8.0999 6.08766 29.5169 
3239 6 -1 13.0462 14.7163 27.5836 
3295 6 -1 4.37093 4.94604 32.3706 
3296 6 -1 4.61021 9.18633 35.4711 
3270 6 -1 19.8471 14.2445 33.1418 
3230 6 -1 7.60986 14.3584 33.2072 
3232 6 -1 18.3396 17.3936 35.2373 
3278 6 -1 5.44157 7.13573 34.8584 
3225 6 -1 3.4101 1.394 35.5212 
3245 6 -1 6.55521 11.743 34.5709 
3282 6 -1 18.4632 5.07902 41.8743 
3274 6 -1 6.97902 0.781857 41.6499 
3284 6 -1 17.2015 4.21238 44.4174 
3248 6 -1 2.65095 15.5243 43.0136 
3241 6 -1 13.9787 14.1175 40.6491 
3268 6 -1 0.175256 17.9017 39.5686 
3227 6 -1 10.1834 19.3864 38.1762 
3236 6 -1 5.66513 1.49557 42.3631 
3288 6 -1 18.2814 2.1016 43.3178 
3275 6 -1 7.46598 6.23003 43.2213 
3237 6 -1 11.4284 10.6259 42.0557 
3267 6 -1 10.6741 11.9329 42.2149 
3266 6 -1 15.9636 18.1957 42.4921 
3250 6 -1 3.75095 11.5745 33.2815 
3253 6 -1 17.7404 17.6568 46.25 
3290 6 -1 11.4668 6.6504 48.7946 
3238 6 -1 11.8883 8.48594 46.7729 
3279 6 -1 4.32633 14.6532 49.5245 
3291 6 -1 7.99265 16.297 47.1339 
3254 6 -1 15.552 1.25298 46.6304 
3287 6 -1 7.94607 0.928968 53.3792 
3269 6 -1 3.15361 2.8266 53.8639 
3255 6 -1 4.6594 1.75428 53.6264 
3252 6 -1 4.47426 10.0716 50.4871 
3293 6 -1 12.8674 4.07969 54.0921 
3294 6 -1 17.7466 13.9049 53.5941 
3260 6 -1 6.48275 0.598298 54.2617 
3281 6 -1 5.92123 6.45383 58.3373 
3277 6 -1 4.14959 7.17021 60.3398 
3273 6 -1 3.95021 8.58244 60.9406 
3228 6 -1 14.7101 12.7499 57.8148 
ITEM: TIMESTEP
102000
ITEM: NUMBER OF ATOMS
96
ITEM: BOX BOUNDS pp pp ff
0 20
0 20
0 62
ITEM: ATOMS id type q x y z 
3211 5 3 1.29788 2.27363 4.68956 
3222 5 3 16.5825 1.49769 1.06092 
3206 5 3 19.0045 0.142019 1.32614 
3202 5 3 15.102 4.489 1.30389 
3217 5 3 18.1159 4.60484 2.83103 
3216 5 3 0.485024 5.10686 2.69101 
3251 6 -1 0.556853 8.79612 1.63288 
3276 6 -1 14.5984 12.7533 10.6291 
3208 5 3 0.666279 16.6056 0.978895 
3213 5 3 6.50194 14.3985 1.34691 
3209 5 3 5.02733 13.9566 3.49162 
3214 5 3 0.180405 14.0321 1.49844 
3205 5 3 1.71518 19.0739 1.17381 
3210 5 3 3.53759 18.2526 1.06092 
3215 5 3 4.52531 -0.00254909 1.52769 
3220 5 3 17.1414 18.3658 1.65392 
3285 6 -1 7.76146 14.2519 6.00983 
3224 5 3 17.9994 17.3984 2.19063 
3218 5 3 1.6885 19.8266 4.89991 
3207 5 3 16.8196 19.4563 4.72215 
3203 5 3 16.6883 1.76539 4.20626 
3265 6 -1 0.818122 10.4583 15.114 
3201 5 3 16.2927 5.24854 4.35314 
3212 5 3 0.849821 17.2061 5.64477 
3219 5 3 4.19629 19.8586 3.31443 
3223 5 3 14.8731 19.3201 3.32238 
3221 5 3 18.5358 18.9557 5.66864 
3204 5 3 0.293907 18.1187 5.27807 
3272 6 -1 14.6526 13.1191 11.3896 
3247 6 -1 7.35459 19.0278 13.4183 
3292 6 -1 1.15745 11.9287 12.6073 
3243 6 -1 2.09801 19.4488 9.05635 
3283 6 -1 14.67 18.3331 14.0083 
3259 6 -1 8.68658 1.96308 8.28129 
3245 6 -1 2.5865 12.8668 27.6693 
3286 6 -1 0.315761 12.5335 18.3948 
3256 6 -1 1.44147 15.9671 19.8548 
3262 6 -1 7.31726 15.3402 20.5157 
3249 6 -1 9.21533 6.08025 25.1119 
3264 6 -1 1.79599 9.2631 20.8851 
3258 6 -1 8.19249 12.5148 21.8062 
3242 6 -1 16.2703 4.02092 16.0133 
3270 6 -1 19.5997 16.9677 29.7974 
3233 6 -1 10.1632 15.0664 18.4151 
3289 6 -1 10.8729 12.7906 25.3688 
3235 6 -1 1.04026 15.7365 22.1835 
3234 6 -1 5.90346 14.6042 27.0744 
3261 6 -1 14.2715 9.87473 16.2578 
3271 6 -1 7.11291 0.409205 27.6316 
3263 6 -1 19.1446 3.18053 18.0978 
3239 6 -1 11.8133 12.403 18.992 
3278 6 -1 2.86957 8.51125 30.1205 
3231 6 -1 10.3442 0.00991701 30.1874 
3244 6 -1 15.149 14.1385 15.7652 
3295 6 -1 6.77854 6.35591 35.3437 
3257 6 -1 15.88 18.0941 31.4636 
3254 6 -1 11.8257 9.60622 44.1503 
3250 6 -1 5.78009 7.39633 41.7611 
3230 6 -1 8.29098 10.701 35.832 
3291 6 -1 6.62658 15.8491 40.9641 
3225 6 -1 0.24397 13.0479 33.8438 
3296 6 -1 10.6812 7.08 38.2356 
3280 6 -1 0.499837 11.2916 39.1969 
3227 6 -1 12.0624 8.87317 34.3764 
3232 6 -1 10.5021 15.9554 37.4653 
3236 6 -1 9.13579 14.9999 32.6342 
3237 6 -1 16.5829 3.37059 39.1581 
3267 6 -1 12.1847 5.99929 37.088 
3241 6 -1 16.4958 8.01042 43.8452 
3268 6 -1 15.0821 13.1131 39.378 
3229 6 -1 8.49192 18.9253 32.733 
3266 6 -1 16.9981 19.2804 33.5198 
3288 6 -1 3.74472 7.23416 31.4193 
3226 6 -1 7.79759 10.1628 32.0669 
3238 6 -1 6.14422 4.9512 40.6333 
3253 6 -1 0.184697 1.2343 32.2744 
3240 6 -1 5.78089 4.6563 31.2551 
3246 6 -1 13.8963 12.465 31.0543 
3274 6 -1 10.1281 14.6548 53.6938 
3290 6 -1 6.2789 15.698 56.8263 
3279 6 -1 18.6298 15.2868 52.0992 
3269 6 -1 3.08495 0.9924 56.8907 
3255 6 -1 15.2024 9.26961 55.966 
3287 6 -1 9.48435 15.5173 57.9767 
3293 6 -1 13.5956 13.1196 54.3899 
3252 6 -1 3.35422 8.17213 53.0914 
3294 6 -1 0.946899 14.2805 60.1344 
3260 6 -1 1.88176 5.53398 59.5351 
3228 6 -1 16.5036 3.85664 53.364 
3281 6 -1 10.3106 0.975133 58.9427 
3277 6 -1 4.63027 2.52353 60.3045 
3273 6 -1 1.29396 9.91396 60.9415 
3284 6 -1 16.6335 3.17157 52.9326 
3248 6 -1 10.0767 7.86613 48.6706 
3282 6 -1 4.50989 14.822 47.2284 
3275 6 -1 6.82442 18.7209 46.8467 
ITEM: TIMESTEP
103000
ITEM: NUMBER OF ATOMS
96
ITEM: BOX BOUNDS pp pp ff
0 20
0 20
0 62
ITEM: ATOMS id type q x y z 
3222 5 3 16.5529 1.16043 1.1111 
3206 5 3 19.1911 0.359729 1.32481 
3216 5 3 0.440133 5.40036 2.43509 
3202 5 3 15.2924 5.60079 1.00319 
3217 5 3 18.3808 4.14839 2.53049 
3208 5 3 0.128006 17.0924 1.22102 
3214 5 3 1.6162 14.4744 2.58525 
3213 5 3 6.18786 15.1723 1.71217 
3209 5 3 3.36706 12.9839 2.28198 
3205 5 3 1.53337 18.8794 0.973261 
3210 5 3 3.54087 18.2781 1.13467 
3215 5 3 4.29369 18.9293 1.57102 
3219 5 3 4.44547 0.294196 3.42236 
3223 5 3 15.2168 18.546 2.83756 
3220 5 3 17.5537 17.8947 1.01015 
3224 5 3 18.6688 17.688 2.40865 
3211 5 3 1.65789 2.80398 4.16234 
3203 5 3 17.2224 2.22537 4.12785 
3201 5 3 15.6478 5.44036 4.69448 
3218 5 3 2.43112 19.6022 4.91684 
3212 5 3 1.06664 17.412 5.68362 
3204 5 3 19.741 18.8245 5.12267 
3207 5 3 16.8875 19.5732 4.45247 
3221 5 3 18.1073 18.5427 5.29199 
3259 6 -1 7.23179 0.915523 6.37317 
3276 6 -1 17.302 4.34448 9.16518 
3239 6 -1 8.50384 6.00062 10.917 
3243 6 -1 13.7538 19.8953 7.14847 
3292 6 -1 1.80788 5.41839 9.6313 
3283 6 -1 19.5425 19.0204 8.34475 
3233 6 -1 9.10762 10.5929 10.3221 
3263 6 -1 4.41972 7.74688 23.3384 
3242 6 -1 11.5579 3.33382 17.8143 
3261 6 -1 17.3885 14.3398 21.1214 
3286 6 -1 11.2404 11.1254 17.8226 
3247 6 -1 12.1493 0.410569 20.1515 
3266 6 -1 16.2781 2.55211 26.3089 
3244 6 -1 2.0125 0.0334021 22.6344 
3264 6 -1 7.30927 5.50708 23.3072 
3258 6 -1 8.95949 7.04127 20.9942 
3256 6 -1 19.594 17.0444 23.7396 
3235 6 -1 8.26887 8.25555 16.3212 
3262 6 -1 11.1915 9.41222 30.9985 
3227 6 -1 13.2114 19.5774 29.4829 
3249 6 -1 11.1078 6.12048 24.4104 
3289 6 -1 10.8518 15.9627 20.1693 
3234 6 -1 1.05928 10.214 28.7038 
3271 6 -1 14.7348 6.58896 27.9826 
3231 6 -1 17.7771 3.66254 30.4123 
3278 6 -1 15.5713 10.533 26.5348 
3245 6 -1 18.3485 11.6507 23.7686 
3270 6 -1 18.2413 18.5986 26.9031 
3265 6 -1 18.2329 17.8761 23.7246 
3288 6 -1 5.39301 11.0569 27.664 
3253 6 -1 3.88163 3.58153 18.911 
3236 6 -1 11.7349 7.83803 25.9618 
3230 6 -1 17.048 11.9604 27.0546 
3272 6 -1 16.8508 0.60451 17.8119 
3285 6 -1 7.16061 3.11734 20.9789 
3251 6 -1 16.3253 17.6548 16.0394 
3228 6 -1 17.6111 17.236 46.101 
3240 6 -1 7.14644 3.50966 34.3855 
3238 6 -1 2.13788 19.7626 34.1929 
3225 6 -1 14.7724 5.53818 33.9253 
3226 6 -1 8.17188 15.6673 33.4613 
3246 6 -1 14.5251 9.43952 31.5458 
3229 6 -1 12.1386 18.8473 42.0478 
3257 6 -1 11.4426 19.8113 33.0438 
3254 6 -1 8.06673 14.9635 39.7611 
3237 6 -1 1.5378 16.3251 37.4257 
3295 6 -1 6.99539 5.91114 38.8431 
3267 6 -1 19.0571 18.8152 31.583 
3296 6 -1 9.45852 6.66951 34.036 
3268 6 -1 11.1943 7.98768 43.3226 
3232 6 -1 2.44587 15.1341 38.3119 
3291 6 -1 2.66476 18.3951 34.7371 
3248 6 -1 19.0991 0.621406 52.6815 
3282 6 -1 15.7004 4.95355 50.9816 
3275 6 -1 7.50624 14.3262 49.3894 
3284 6 -1 17.3936 1.72375 59.5598 
3241 6 -1 18.7195 2.76138 47.033 
3252 6 -1 0.870355 4.82931 56.1294 
3250 6 -1 5.78728 5.77909 50.7863 
3274 6 -1 11.8522 11.6849 58.7214 
3279 6 -1 14.3033 17.3161 49.3691 
3269 6 -1 1.83857 3.64938 53.404 
3255 6 -1 4.93493 15.2543 55.6228 
3293 6 -1 17.0501 3.08627 52.6533 
3290 6 -1 4.74612 15.1865 53.8411 
3287 6 -1 9.4693 9.72946 58.1928 
3277 6 -1 4.83256 17.4747 60.0062 
3281 6 -1 11.3468 15.6044 60.4006 
3260 6 -1 16.5912 9.93235 50.6766 
3273 6 -1 19.2344 10.848 60.6818 
3294 6 -1 2.03859 15.555 49.0982 
3280 6 -1 5.61417 10.4582 48.639 
ITEM: TIMESTEP
104000
ITEM: NUMBER OF ATOMS
96
ITEM: BOX BOUNDS pp pp ff
0 20
0 20
0 62
ITEM: ATOMS id type q x y z 
3219 5 3 4.04018 19.7359 3.74961 
3222 5 3 16.1425 2.14169 1.20557 
3206 5 3 19.2849 0.888175 1.3204 
3216 5 3 0.775004 5.58724 2.52334 
3202 5 3 15.6416 5.30231 1.55674 
3217 5 3 17.9202 4.34144 2.87515 
3209 5 3 3.8803 13.0485 2.98591 
3214 5 3 3.06221 13.8345 2.58879 
3213 5 3 5.34982 16.1123 1.02229 
3208 5 3 19.358 17.4546 1.0692 
3205 5 3 1.97782 19.7194 1.20648 
3210 5 3 2.59469 18.6559 1.42017 
3215 5 3 4.72533 18.7427 1.61243 
3223 5 3 16.0285 18.8854 4.28745 
3220 5 3 16.8846 18.8972 1.7196 
3224 5 3 18.6346 18.2369 2.74974 
3211 5 3 1.65016 1.90184 4.69268 
3259 6 -1 6.63137 4.90276 8.65465 
3203 5 3 17.0327 2.14519 4.76058 
3201 5 3 15.2902 5.06886 4.70033 
3218 5 3 0.277097 18.2489 5.59159 
3212 5 3 0.0541625 16.0177 6.06407 
3243 6 -1 3.55068 0.735724 8.20166 
3204 5 3 19.6554 18.9796 6.16917 
3207 5 3 16.1088 19.6689 4.97281 
3221 5 3 17.9503 18.962 5.14476 
3292 6 -1 5.76367 1.53868 4.3476 
3239 6 -1 10.4995 0.397171 5.53918 
3289 6 -1 10.1397 18.9583 14.9347 
3233 6 -1 6.70676 7.56428 4.275 
3283 6 -1 1.52419 17.5635 7.98582 
3235 6 -1 15.3206 0.913952 10.6499 
3253 6 -1 6.3535 2.31818 8.80252 
3242 6 -1 6.8404 0.699647 16.7598 
3272 6 -1 1.52533 8.97216 21.2295 
3238 6 -1 17.3206 2.2178 29.7072 
3267 6 -1 1.84144 17.1138 29.0885 
3286 6 -1 5.02623 9.56311 16.0418 
3296 6 -1 6.5589 7.64287 30.5048 
3244 6 -1 18.001 19.513 28.3218 
3247 6 -1 11.1853 4.4082 23.6947 
3258 6 -1 10.8122 0.775472 23.3997 
3261 6 -1 2.18615 17.4525 23.0836 
3266 6 -1 15.6129 5.24211 21.1274 
3264 6 -1 15.303 1.70388 28.8869 
3249 6 -1 10.7986 9.84998 27.9331 
3263 6 -1 9.39618 14.3917 28.254 
3236 6 -1 13.6514 2.38909 20.1941 
3278 6 -1 3.04529 11.1317 22.8112 
3245 6 -1 14.2193 8.51368 19.4832 
3230 6 -1 5.33806 15.1601 21.5364 
3256 6 -1 18.3585 1.28208 25.3566 
3270 6 -1 16.7059 1.33512 27.5054 
3227 6 -1 12.2974 11.0743 25.261 
3271 6 -1 0.967364 6.55128 30.184 
3231 6 -1 19.6735 2.94187 25.3524 
3288 6 -1 5.83896 17.0533 23.1098 
3276 6 -1 16.0353 1.48263 15.5932 
3228 6 -1 18.8254 10.1567 36.2166 
3240 6 -1 7.64986 3.54526 35.9492 
3225 6 -1 11.9512 16.8575 35.4007 
3285 6 -1 5.24275 12.0092 35.4283 
3262 6 -1 13.1255 6.30416 40.4251 
3246 6 -1 15.6265 6.17913 31.3341 
3251 6 -1 14.5863 4.32474 33.0622 
3226 6 -1 10.954 19.2952 35.0238 
3294 6 -1 3.68859 15.3834 38.1225 
3291 6 -1 17.9236 16.7984 31.4181 
3257 6 -1 7.54031 0.739218 33.0193 
3260 6 -1 9.20024 12.734 41.1689 
3268 6 -1 9.89362 5.24363 46.0052 
3237 6 -1 5.81517 8.47208 35.9903 
3232 6 -1 11.1248 13.4147 40.6658 
3295 6 -1 4.66533 8.06312 41.2956 
3254 6 -1 6.45932 17.3973 41.2457 
3265 6 -1 17.1078 7.16243 33.1907 
3234 6 -1 15.9388 8.61197 32.4267 
3279 6 -1 10.8899 17.0778 46.3856 
3241 6 -1 19.8236 19.6622 52.1314 
3280 6 -1 8.87228 12.7325 58.7576 
3275 6 -1 8.11769 13.0795 49.0143 
3248 6 -1 1.48353 9.65821 58.7823 
3293 6 -1 9.97806 17.8992 58.0539 
3269 6 -1 0.811749 7.39057 51.7866 
3250 6 -1 5.61861 3.36671 60.789 
3282 6 -1 9.38704 17.1916 49.7084 
3229 6 -1 14.6706 19.9764 53.1147 
3290 6 -1 6.20737 15.6044 47.5873 
3252 6 -1 1.507 1.35219 60.1045 
3287 6 -1 7.48954 3.14811 54.5004 
3255 6 -1 18.5633 19.8049 55.3723 
3284 6 -1 18.5204 0.190791 57.5863 
3274 6 -1 16.9642 9.95646 50.7402 
3273 6 -1 16.6067 12.5551 60.8976 
3281 6 -1 11.0784 13.7969 53.8434 
3277 6 -1 4.5079 13.8388 56.7419 
ITEM: TIMESTEP
105000
ITEM: NUMBER OF ATOMS
96
ITEM: BOX BOUNDS pp pp ff
0 20
0 20
0 62
ITEM: ATOMS id type q x y z 
3222 5 3 15.8108 2.16037 1.30381 
3206 5 3 20.0314 0.772347 1.4997 
3216 5 3 0.363043 5.2432 2.15298 
3202 5 3 15.2867 5.05062 1.06452 
3217 5 3 17.7767 3.89009 3.07883 
3209 5 3 4.34724 14.25 3.80314 
3214 5 3 2.19864 14.1043 2.47542 
3213 5 3 5.17372 15.8445 1.40491 
3205 5 3 1.5526 18.9016 0.973441 
3210 5 3 2.78169 18.3018 1.92737 
3219 5 3 4.15213 0.617473 3.48679 
3215 5 3 3.70169 19.2686 1.08212 
3208 5 3 19.9617 17.3877 1.01308 
3220 5 3 17.7118 18.3367 1.05388 
3224 5 3 18.6182 17.8044 2.77021 
3211 5 3 2.72812 3.42314 2.83429 
3292 6 -1 10.7445 17.1958 9.49648 
3239 6 -1 12.1172 18.4655 7.78422 
3203 5 3 16.8165 2.57694 4.09836 
3201 5 3 14.1928 6.19551 3.42014 
3266 6 -1 13.9026 3.67542 13.3379 
3212 5 3 19.7195 17.1302 5.92622 
3218 5 3 0.296371 18.6185 6.01152 
3223 5 3 15.4851 19.4463 4.36335 
3207 5 3 16.7633 18.0642 5.77537 
3204 5 3 18.7373 19.04 5.83052 
3221 5 3 17.5744 19.0909 5.67418 
3243 6 -1 11.8683 0.219146 13.5676 
3253 6 -1 9.21151 19.4123 7.51325 
3235 6 -1 5.47599 11.8998 8.65972 
3259 6 -1 12.226 8.90988 13.2964 
3283 6 -1 15.2464 5.6487 15.2504 
3242 6 -1 0.231288 17.707 13.8664 
3289 6 -1 12.2595 2.15828 12.5188 
3286 6 -1 18.21 9.8946 13.2781 
3230 6 -1 16.5698 19.9566 12.0103 
3236 6 -1 18.9895 2.43392 14.7195 
3246 6 -1 15.7226 4.81416 30.9057 
3276 6 -1 15.3737 18.633 22.436 
3257 6 -1 0.996121 2.86397 29.2908 
3291 6 -1 14.9024 12.4025 29.5421 
3249 6 -1 12.0475 14.5716 29.1546 
3296 6 -1 2.45565 10.6227 26.2128 
3272 6 -1 5.44196 13.6596 19.7011 
3245 6 -1 9.66665 5.77735 15.8759 
3278 6 -1 11.6537 12.0059 19.2038 
3261 6 -1 6.46875 19.4186 24.6551 
3288 6 -1 7.91396 8.94594 18.2546 
3258 6 -1 9.32078 12.0191 23.5836 
3256 6 -1 15.1807 2.709 27.8878 
3231 6 -1 16.3537 0.275673 21.5879 
3247 6 -1 0.434973 11.3923 21.9363 
3227 6 -1 12.2763 5.90267 17.9184 
3233 6 -1 11.4494 15.6555 18.01 
3294 6 -1 6.41703 15.6955 29.0652 
3244 6 -1 5.14547 0.189073 28.5723 
3238 6 -1 17.9753 6.6253 28.5192 
3270 6 -1 15.3041 4.71417 24.7587 
3228 6 -1 18.1888 7.95364 24.0912 
3264 6 -1 5.79706 16.0292 32.9496 
3271 6 -1 5.60996 6.02949 33.693 
3274 6 -1 2.04414 9.38532 43.9807 
3234 6 -1 11.2774 13.2769 36.5785 
3265 6 -1 18.6458 16.9008 42.9519 
3281 6 -1 13.5801 11.423 46.1109 
3240 6 -1 7.30535 4.83527 38.8098 
3237 6 -1 11.1049 0.847123 31.3266 
3285 6 -1 1.07997 3.43332 45.7897 
3267 6 -1 3.86098 1.85817 32.771 
3225 6 -1 10.0041 8.39423 38.6866 
3226 6 -1 11.8896 1.77441 36.255 
3295 6 -1 18.8793 9.52091 43.3829 
3260 6 -1 2.08267 15.2783 34.1621 
3232 6 -1 1.65499 12.6599 41.2017 
3254 6 -1 6.45962 1.08617 41.9811 
3279 6 -1 8.92695 16.8912 43.3362 
3290 6 -1 4.84202 15.241 43.0608 
3263 6 -1 14.7764 2.76539 34.4057 
3275 6 -1 7.20309 8.74592 52.3985 
3268 6 -1 6.40175 1.6108 49.0896 
3282 6 -1 4.58714 9.18367 52.3425 
3269 6 -1 1.78963 12.3316 54.2459 
3251 6 -1 10.4917 7.06738 49.5215 
3229 6 -1 14.0552 3.03184 58.7019 
3241 6 -1 2.42842 16.3314 55.4103 
3287 6 -1 6.6616 16.1135 55.3301 
3284 6 -1 18.5057 0.600523 54.0794 
3277 6 -1 2.01472 16.9863 48.4713 
3293 6 -1 3.27939 14.4918 46.5125 
3255 6 -1 12.7439 7.12884 50.2247 
3252 6 -1 2.62719 0.549536 57.0497 
3250 6 -1 4.94653 0.588264 50.5905 
3248 6 -1 18.8159 14.0666 52.395 
3280 6 -1 13.2435 15.1912 53.9118 
3273 6 -1 11.6475 11.8712 58.9237 
3262 6 -1 16.2478 2.77987 49.2348 
ITEM: TIMESTEP
106000
ITEM: NUMBER OF ATOMS
96
ITEM: BOX BOUNDS pp pp ff
0 20
0 20
0 62
ITEM: ATOMS id type q x y z 
3206 5 3 0.394475 1.59405 1.21532 
3219 5 3 3.56058 0.605385 2.83069 
3222 5 3 16.2606 1.66557 1.32485 
3216 5 3 0.521837 4.2226 1.90469 
3211 5 3 3.15311 2.46239 1.87107 
3202 5 3 15.349 6.17941 1.16301 
3201 5 3 13.987 6.09125 3.30811 
3217 5 3 18.292 4.23561 3.37139 
3214 5 3 1.33925 13.8454 2.80063 
3209 5 3 4.60469 14.0496 3.94484 
3213 5 3 4.84992 15.9934 1.31562 
3205 5 3 1.37624 19.5186 1.42589 
3210 5 3 2.66353 17.598 1.92221 
3208 5 3 0.306392 18.0744 1.50067 
3215 5 3 4.19135 17.9913 1.52702 
3220 5 3 17.5388 17.815 1.406 
3224 5 3 17.9776 18.0766 2.56578 
3203 5 3 16.8412 3.02738 4.2225 
3218 5 3 0.795841 18.6571 5.58183 
3253 6 -1 12.1247 16.1123 9.72385 
3223 5 3 15.9489 19.1983 3.83955 
3212 5 3 19.1475 17.3296 5.28449 
3207 5 3 16.6986 18.6513 5.41591 
3204 5 3 19.4015 18.8657 5.74219 
3221 5 3 18.1926 18.9758 4.96063 
3227 6 -1 11.5587 19.3501 10.5713 
3235 6 -1 17.3516 17.2952 11.2836 
3288 6 -1 11.4855 1.8263 11.1576 
3245 6 -1 4.4316 3.72388 12.0683 
3243 6 -1 17.5931 0.510222 11.4304 
3272 6 -1 6.55975 17.8554 14.8072 
3236 6 -1 4.25919 2.26451 8.7069 
3266 6 -1 13.1852 1.05479 6.24776 
3259 6 -1 19.31 15.4 15.1241 
3286 6 -1 13.8931 13.4992 10.9115 
3242 6 -1 16.6859 13.8494 10.059 
3230 6 -1 8.82614 4.8745 8.4931 
3228 6 -1 15.3502 11.3554 13.9919 
3237 6 -1 18.9691 14.0673 27.3951 
3283 6 -1 11.4344 15.7383 25.6267 
3289 6 -1 12.3597 2.83907 16.1498 
3233 6 -1 13.2286 5.94585 30.4757 
3231 6 -1 15.8755 15.8708 17.8005 
3278 6 -1 19.3309 13.1113 15.7131 
3247 6 -1 9.4124 17.4587 19.5015 
3249 6 -1 12.8371 17.6676 30.8091 
3276 6 -1 15.8882 14.4892 30.5158 
3270 6 -1 16.5698 8.17435 20.7685 
3260 6 -1 12.2732 19.7094 28.3642 
3239 6 -1 11.126 0.230943 17.6206 
3296 6 -1 16.7423 12.588 26.4855 
3258 6 -1 9.39628 3.97488 23.0083 
3261 6 -1 10.4604 19.0198 25.963 
3257 6 -1 13.4792 6.69194 28.4143 
3244 6 -1 14.3815 19.9179 29.2028 
3256 6 -1 11.9219 2.09845 27.9219 
3292 6 -1 13.9121 15.8707 20.0037 
3294 6 -1 10.4229 14.9225 21.468 
3267 6 -1 5.86667 9.30489 36.3988 
3263 6 -1 5.34767 7.95213 39.353 
3271 6 -1 9.33291 6.01927 38.5585 
3277 6 -1 0.891749 19.5786 42.0128 
3279 6 -1 7.6576 18.3589 42.9171 
3264 6 -1 17.0219 12.3759 38.2624 
3226 6 -1 14.7395 3.26769 38.9132 
3248 6 -1 16.9422 16.1522 41.0173 
3225 6 -1 8.08847 0.953058 38.1471 
3234 6 -1 7.69019 16.7001 41.2663 
3254 6 -1 2.81355 2.96162 40.8915 
3240 6 -1 4.95961 5.67134 40.6433 
3232 6 -1 12.4454 12.2368 41.2414 
3255 6 -1 8.79698 15.9238 44.1646 
3246 6 -1 17.094 3.71864 34.6352 
3274 6 -1 4.70186 12.299 39.6956 
3281 6 -1 15.437 9.20881 40.0589 
3238 6 -1 18.8455 11.2811 31.4455 
3293 6 -1 17.5932 11.3793 35.2477 
3290 6 -1 4.65824 17.6117 37.3398 
3250 6 -1 5.66788 13.2931 41.1778 
3291 6 -1 13.1239 5.95027 31.2862 
3268 6 -1 3.59101 17.2272 49.4045 
3262 6 -1 16.2903 1.04084 56.5322 
3251 6 -1 6.81063 8.58003 56.9641 
3295 6 -1 12.7243 12.3564 49.3683 
3285 6 -1 17.7478 13.5534 52.6221 
3284 6 -1 18.7544 0.105966 48.114 
3282 6 -1 16.6859 15.4957 53.8117 
3275 6 -1 7.23826 6.1922 58.3701 
3280 6 -1 17.9729 18.0993 50.2234 
3265 6 -1 16.9011 7.75357 50.973 
3252 6 -1 5.63384 0.7164 52.7985 
3269 6 -1 0.781303 16.9416 55.5375 
3241 6 -1 4.86671 12.7853 58.756 
3287 6 -1 6.8969 7.84064 53.3019 
3229 6 -1 15.3697 8.70147 48.4506 
3273 6 -1 6.25077 12.8361 56.2049 
ITEM: TIMESTEP
107000
ITEM: NUMBER OF ATOMS
96
ITEM: BOX BOUNDS pp pp ff
0 20
0 20
0 62
ITEM: ATOMS id type q x y z 
3206 5 3 19.6707 1.48973 1.01446 
3211 5 3 2.89247 2.78598 3.46702 
3219 5 3 3.54756 0.719656 3.54559 
3222 5 3 16.456 1.7016 1.60339 
3216 5 3 0.359077 4.788 1.63535 
3202 5 3 16.0354 6.95368 2.38273 
3201 5 3 14.4397 6.38902 4.04029 
3217 5 3 18.0846 4.63417 3.2191 
3214 5 3 0.963487 13.705 2.62363 
3213 5 3 5.22887 16.4576 1.83594 
3205 5 3 1.30841 18.6424 1.05485 
3210 5 3 2.43142 18.5055 1.80094 
3208 5 3 0.136531 17.9522 1.1356 
3215 5 3 4.03172 18.444 1.32579 
3223 5 3 15.751 19.4757 3.38523 
3220 5 3 17.8767 16.9975 1.15398 
3224 5 3 18.3935 17.7699 2.87693 
3266 6 -1 13.0357 13.699 6.84806 
3203 5 3 16.7874 2.64863 4.41215 
3209 5 3 4.42481 13.6764 2.92794 
3218 5 3 0.478187 16.7842 5.44451 
3212 5 3 19.275 16.5305 6.16987 
3207 5 3 16.7918 19.2953 5.25014 
3204 5 3 19.5251 19.5748 5.62744 
3221 5 3 18.108 18.8921 4.86994 
3236 6 -1 7.76867 1.79464 5.96935 
3272 6 -1 7.36681 19.1598 14.0728 
3288 6 -1 14.7798 13.0253 7.25919 
3247 6 -1 13.6143 2.09788 14.1039 
3243 6 -1 8.06417 7.69693 11.5286 
3230 6 -1 2.33613 10.5065 8.98916 
3253 6 -1 12.9349 13.1692 12.6006 
3286 6 -1 9.33056 12.3906 6.85535 
3242 6 -1 15.9249 8.5868 4.43912 
3227 6 -1 8.93638 10.459 4.66711 
3235 6 -1 8.78088 17.4792 15.0575 
3245 6 -1 0.569352 0.213735 13.2383 
3228 6 -1 16.4099 17.4525 7.17288 
3294 6 -1 11.6336 13.6969 14.1048 
3289 6 -1 13.6232 2.75169 20.1669 
3239 6 -1 10.9797 3.92117 27.1429 
3278 6 -1 10.2206 12.3676 20.5621 
3231 6 -1 16.8825 9.2637 16.6752 
3258 6 -1 9.05421 16.7935 22.1147 
3270 6 -1 19.7468 11.3776 16.6836 
3292 6 -1 15.0917 14.2303 28.2333 
3296 6 -1 9.87572 11.9182 27.3191 
3261 6 -1 9.7585 18.8357 27.748 
3256 6 -1 6.42633 4.01429 28.2388 
3259 6 -1 8.26684 2.86875 18.0012 
3257 6 -1 7.96916 13.0794 28.0896 
3237 6 -1 11.7795 7.30548 25.3271 
3260 6 -1 18.9559 8.30653 24.487 
3276 6 -1 19.4042 7.19743 30.5286 
3293 6 -1 12.5654 9.93733 24.5201 
3233 6 -1 12.0125 12.1568 33.525 
3291 6 -1 7.45409 6.43647 46.0745 
3246 6 -1 17.5542 0.817445 38.7932 
3229 6 -1 18.2447 13.5432 38.1196 
3238 6 -1 18.3614 15.5498 35.0289 
3225 6 -1 7.27997 15.6915 36.4418 
3271 6 -1 15.1622 5.80207 45.1198 
3267 6 -1 7.45269 17.007 33.6752 
3264 6 -1 5.9867 8.44852 42.7614 
3284 6 -1 19.5344 17.9529 41.0899 
3290 6 -1 2.90324 0.760216 32.2893 
3254 6 -1 19.526 3.57234 41.8982 
3226 6 -1 17.62 4.72787 40.2481 
3240 6 -1 2.3866 6.95696 43.7902 
3263 6 -1 18.0293 8.37231 44.14 
3281 6 -1 15.4503 4.5368 33.4884 
3274 6 -1 2.22026 14.5719 34.0142 
3250 6 -1 6.5398 5.37449 37.9151 
3232 6 -1 2.94227 12.2528 43.7643 
3248 6 -1 17.6564 18.4797 33.2101 
3277 6 -1 -0.00230267 1.65106 37.1619 
3283 6 -1 5.52343 9.21754 33.0581 
3249 6 -1 10.1152 18.3008 35.8845 
3255 6 -1 3.18539 6.34454 45.2905 
3279 6 -1 4.25845 5.55663 45.984 
3244 6 -1 5.81636 1.64463 31.2365 
3251 6 -1 5.06172 12.2525 43.202 
3295 6 -1 8.29434 14.5889 58.385 
3268 6 -1 2.03585 16.3618 54.8785 
3280 6 -1 2.32543 16.8901 50.6169 
3252 6 -1 9.60382 19.9211 48.9384 
3287 6 -1 7.1958 1.79977 48.7573 
3265 6 -1 13.8455 17.1494 56.4991 
3285 6 -1 16.9192 3.09915 57.4698 
3282 6 -1 7.55474 0.14492 56.8489 
3262 6 -1 12.1562 2.3199 57.7196 
3273 6 -1 1.62968 15.2742 55.2231 
3269 6 -1 19.305 18.7114 59.0853 
3275 6 -1 7.26376 4.2928 57.8237 
3241 6 -1 9.87548 8.68005 57.8367 
3234 6 -1 4.46263 19.663 47.7912 
ITEM: TIMESTEP
108000
ITEM: NUMBER OF ATOMS
96
ITEM: BOX BOUNDS pp pp ff
0 20
0 20
0 62
ITEM: ATOMS id type q x y z 
3211 5 3 1.69357 4.7342 3.33374 
3219 5 3 3.67653 0.556805 3.17396 
3222 5 3 15.8325 1.95577 1.3849 
3206 5 3 0.275052 1.10161 0.989326 
3216 5 3 1.548 5.41578 1.0544 
3217 5 3 17.653 5.40403 2.85365 
3202 5 3 15.205 6.75103 2.31791 
3214 5 3 0.565358 13.0641 2.42224 
3213 5 3 5.49731 16.2824 1.04617 
3209 5 3 4.63969 14.0442 2.62552 
3205 5 3 1.32823 18.0702 1.07212 
3210 5 3 2.33019 18.5039 1.45002 
3208 5 3 19.722 18.0217 1.79335 
3215 5 3 4.17259 17.9688 1.10658 
3223 5 3 15.7306 19.5328 3.46604 
3220 5 3 18.1309 16.9131 1.05277 
3224 5 3 18.1406 17.7191 3.04587 
3236 6 -1 13.2745 4.93016 10.5208 
3203 5 3 17.0346 2.4963 4.28944 
3201 5 3 14.6927 7.40185 4.07621 
3242 6 -1 15.866 6.52705 5.39248 
3286 6 -1 6.61387 7.23542 9.11317 
3227 6 -1 8.56733 15.7116 10.8899 
3288 6 -1 13.0065 16.7693 8.8539 
3266 6 -1 15.2817 7.02869 12.6529 
3212 5 3 18.6089 17.3996 5.37457 
3218 5 3 0.551684 16.3885 5.34247 
3228 6 -1 17.1637 4.87116 8.64155 
3207 5 3 16.8194 18.9772 5.30129 
3204 5 3 19.6598 19.3029 5.47254 
3221 5 3 18.3336 18.8481 5.08178 
3230 6 -1 15.8538 13.2259 15.211 
3293 6 -1 13.8252 11.1641 12.4115 
3247 6 -1 15.4563 9.44717 12.0248 
3270 6 -1 2.97849 12.8037 12.5859 
3294 6 -1 10.5049 15.29 11.3127 
3272 6 -1 10.3728 18.3107 15.5148 
3245 6 -1 17.4784 16.6834 15.1908 
3259 6 -1 16.2613 11.0803 22.1266 
3231 6 -1 1.37452 2.38905 16.5335 
3267 6 -1 10.3088 4.78266 25.435 
3261 6 -1 13.8767 18.9822 27.4107 
3235 6 -1 0.86922 17.1246 22.735 
3289 6 -1 15.5303 5.02997 23.2168 
3278 6 -1 2.97397 7.57328 29.551 
3258 6 -1 11.8568 10.6494 21.126 
3248 6 -1 18.099 16.115 27.3172 
3237 6 -1 3.00043 19.3638 19.9613 
3243 6 -1 0.576971 15.4578 18.1747 
3260 6 -1 1.5496 16.1572 19.2451 
3229 6 -1 19.0725 12.9478 28.6256 
3256 6 -1 0.674692 7.50395 26.1527 
3276 6 -1 2.10811 3.27396 28.8708 
3296 6 -1 0.34351 11.7086 27.2623 
3257 6 -1 5.40395 1.05686 29.1727 
3290 6 -1 19.6277 3.46567 24.7788 
3274 6 -1 17.5579 0.859045 23.9387 
3281 6 -1 16.4093 0.0400672 29.6378 
3253 6 -1 14.4055 10.4071 15.7146 
3244 6 -1 18.695 6.41952 33.1189 
3240 6 -1 0.272561 6.4625 44.7938 
3283 6 -1 1.84588 6.06439 43.15 
3233 6 -1 10.6958 2.66477 35.6587 
3239 6 -1 12.3531 7.57816 34.1537 
3287 6 -1 8.73806 2.42293 44.4988 
3277 6 -1 13.4905 1.36843 33.9439 
3250 6 -1 8.49663 17.9148 35.1369 
3225 6 -1 8.27497 11.3497 34.2947 
3238 6 -1 19.0925 0.866589 39.1685 
3249 6 -1 11.8329 0.914261 41.4797 
3246 6 -1 19.1256 17.1319 42.6312 
3226 6 -1 19.2645 8.08353 38.2367 
3292 6 -1 14.0218 11.5355 34.8631 
3251 6 -1 3.07595 19.6156 34.2751 
3284 6 -1 0.817529 13.6698 37.1446 
3232 6 -1 15.3399 14.1978 44.852 
3255 6 -1 18.2575 16.3847 49.6277 
3291 6 -1 18.5442 6.61554 57.854 
3269 6 -1 18.331 15.3044 57.1333 
3234 6 -1 0.819163 0.0609612 56.1641 
3252 6 -1 15.4235 17.877 46.8848 
3280 6 -1 7.23985 11.104 49.0984 
3282 6 -1 19.947 5.44572 58.247 
3262 6 -1 6.00451 6.19059 50.4566 
3285 6 -1 13.9622 12.896 58.4964 
3275 6 -1 7.79724 1.38177 54.5249 
3241 6 -1 15.7142 5.85538 53.2611 
3268 6 -1 0.690842 17.2366 58.3737 
3273 6 -1 12.9561 12.3574 57.1354 
3265 6 -1 11.775 7.54502 58.3783 
3295 6 -1 3.03116 15.382 52.5143 
3279 6 -1 0.627102 14.9874 52.9004 
3271 6 -1 0.0925806 5.25967 52.3269 
3264 6 -1 11.2192 5.75057 48.7877 
3263 6 -1 8.08123 8.77569 47.8292 
3254 6 -1 18.4046 4.06276 48.8445 
ITEM: TIMESTEP
109000
ITEM: NUMBER OF ATOMS
96
ITEM: BOX BOUNDS pp pp ff
0 20
0 20
0 62
ITEM: ATOMS id type q x y z 
3206 5 3 0.872727 1.25169 1.30351 
3219 5 3 4.61721 19.5634 2.68736 
3222 5 3 13.9701 2.92658 1.66946 
3211 5 3 19.4555 4.94203 2.91027 
3216 5 3 0.400284 5.30537 2.04519 
3217 5 3 17.8514 4.92612 2.86319 
3202 5 3 15.0883 6.56367 2.59765 
3214 5 3 1.81203 14.4705 1.86479 
3213 5 3 6.10878 16.3985 1.10029 
3209 5 3 4.68728 14.3118 3.19625 
3205 5 3 0.497572 18.5833 1.99254 
3210 5 3 2.89309 18.8364 1.19008 
3215 5 3 4.25664 17.5932 1.22484 
3223 5 3 15.1881 19.7854 3.24982 
3208 5 3 19.1675 17.8092 1.6413 
3220 5 3 18.2039 15.7671 1.21621 
3224 5 3 17.7517 18.3924 2.8935 
3203 5 3 16.665 2.15503 5.02187 
3242 6 -1 14.9022 8.91978 10.3611 
3201 5 3 14.2673 5.84026 5.14954 
3218 5 3 19.9915 16.7893 5.12489 
3212 5 3 18.2732 18.9964 6.01416 
3207 5 3 16.8949 19.1564 5.06353 
3204 5 3 0.287215 1.13473 4.92083 
3221 5 3 18.1193 19.1708 4.65361 
3260 6 -1 4.99642 0.614109 13.5438 
3228 6 -1 11.2769 3.84389 11.8925 
3237 6 -1 11.4776 13.2483 14.2396 
3294 6 -1 7.6993 16.4287 12.1353 
3274 6 -1 7.28654 8.54249 13.14 
3288 6 -1 12.0829 1.39577 12.4274 
3231 6 -1 3.81632 17.0363 13.2085 
3247 6 -1 19.2006 16.6012 8.88493 
3270 6 -1 6.53441 13.8877 10.3327 
3245 6 -1 15.0416 11.1375 10.8037 
3293 6 -1 15.602 12.7428 2.96045 
3290 6 -1 17.214 4.23324 14.6339 
3251 6 -1 3.16056 5.47642 29.194 
3266 6 -1 0.322765 2.35349 20.4581 
3253 6 -1 14.5362 7.78761 18.4882 
3243 6 -1 17.6778 6.67189 24.2088 
3272 6 -1 13.713 19.5046 16.4852 
3289 6 -1 16.0978 9.18789 28.4851 
3258 6 -1 16.4069 2.3488 20.0628 
3259 6 -1 5.50006 17.3315 28.0571 
3235 6 -1 15.0449 16.1195 25.4238 
3236 6 -1 17.4643 8.44317 19.293 
3227 6 -1 11.6791 13.9004 20.5802 
3267 6 -1 13.3914 11.5862 18.2862 
3225 6 -1 6.56524 7.24699 30.5506 
3256 6 -1 12.5756 8.98696 22.5562 
3276 6 -1 2.66476 16.924 30.9014 
3261 6 -1 13.3084 16.2296 26.9628 
3230 6 -1 11.3136 16.2902 21.4325 
3296 6 -1 18.4735 10.0294 25.0389 
3229 6 -1 2.96946 11.4286 20.3176 
3248 6 -1 15.737 11.9283 23.3816 
3286 6 -1 4.52554 1.02661 17.3348 
3277 6 -1 8.44396 0.229654 29.776 
3244 6 -1 11.1452 8.72249 35.8342 
3239 6 -1 15.1483 7.96187 44.582 
3252 6 -1 1.24929 15.2649 46.2156 
3278 6 -1 19.5806 4.03911 38.755 
3262 6 -1 2.07145 9.63249 43.3533 
3233 6 -1 9.46537 12.5871 32.4879 
3226 6 -1 1.35895 14.4322 39.4983 
3292 6 -1 11.2162 9.66797 42.564 
3284 6 -1 2.25144 10.903 34.4208 
3250 6 -1 13.6492 10.386 35.7158 