ITEM: TIMESTEP
6000
ITEM: NUMBER OF ATOMS
268
ITEM: BOX BOUNDS pp pp ff
0 40
0 40
0 42
ITEM: ATOMS id type q x y z 
4004 6 -1 5.20037 0.525198 20.5927 
3956 6 -1 25.3325 8.12022 15.7784 
3890 6 -1 31.0034 19.7125 6.2824 
3881 6 -1 29.7959 18.3978 17.9576 
3865 5 3 4.39245 10.5593 5.68165 
3861 5 3 10.4352 19.5344 4.34078 
3878 6 -1 12.2991 6.39521 19.7528 
3897 6 -1 11.7118 5.97534 16.6655 
3824 5 3 19.0615 1.93814 1.41863 
3849 5 3 23.0471 0.188578 7.51795 
3908 6 -1 27.1986 13.9646 19.8968 
3819 5 3 27.5022 9.49116 2.44338 
3985 6 -1 4.12169 3.05592 3.98344 
4010 6 -1 15.6809 12.4507 3.46152 
3903 6 -1 16.3175 13.0033 20.7055 
4014 6 -1 31.526 12.7745 3.2016 
3806 5 3 1.27685 6.07419 3.06035 
3839 5 3 0.100029 10.7565 3.09072 
3827 5 3 0.931177 14.2748 3.65195 
3860 5 3 8.46852 7.00072 4.66593 
3857 5 3 25.5829 9.27195 6.72942 
3862 5 3 18.3166 12.8971 6.12962 
3812 5 3 20.6372 1.08823 12.3946 
3968 6 -1 9.56136 10.7841 16.6484 
3847 5 3 8.54345 4.17397 8.10746 
4030 6 -1 33.7945 14.0359 5.55686 
3916 6 -1 24.3793 2.51441 18.1733 
4007 6 -1 32.1672 5.20249 12.9647 
3844 5 3 25.1586 16.7375 12.9388 
3859 5 3 33.7101 11.7099 1.24042 
3823 5 3 37.1555 15.5134 8.60584 
3895 6 -1 39.8962 2.4795 5.98709 
3805 5 3 2.88645 2.29671 12.7716 
3822 5 3 6.48755 12.4258 5.75137 
4025 6 -1 7.48586 8.8184 17.7115 
3845 5 3 7.44339 -0.00298077 9.73205 
3809 5 3 20.1463 2.03752 6.6445 
3864 5 3 14.4547 16.0566 4.32634 
3808 5 3 22.1915 18.4744 8.61775 
3863 5 3 27.8384 6.15597 5.81007 
4038 6 -1 13.875 8.36037 14.243 
3923 6 -1 4.3259 13.7474 12.3937 
4011 6 -1 34.2504 17.0823 15.1551 
3858 5 3 8.501 8.28661 13.696 
3838 5 3 10.2065 10.4834 3.50762 
3811 5 3 20.7587 14.1534 9.75488 
3974 6 -1 20.2311 9.13031 4.7109 
3951 6 -1 12.765 0.531654 7.95489 
3820 5 3 26.7383 2.35921 4.36336 
3828 5 3 13.6863 8.57498 8.17643 
3870 6 -1 8.21467 16.0784 16.1228 
3830 5 3 39.4729 13.4121 11.824 
4042 6 -1 22.5076 14.6314 7.59655 
3814 5 3 22.2911 15.5928 6.16237 
4028 6 -1 8.94267 5.03799 15.193 
3936 6 -1 31.3461 15.2886 13.9004 
3869 6 -1 37.4028 16.8137 17.0892 
3813 5 3 6.1811 16.5049 1.1655 
4064 6 -1 1.36853 14.4706 1.84413 
3850 5 3 27.3037 10.5928 6.88926 
3856 5 3 25.4597 4.818 7.88631 
3851 5 3 38.0779 13.779 2.44566 
4048 6 -1 34.3166 0.392356 20.7377 
4037 6 -1 9.57029 1.23482 1.26802 
4067 6 -1 4.26803 5.35831 17.8743 
4019 6 -1 29.6348 18.0387 20.5943 
3927 6 -1 34.5746 11.0337 1.99244 
4057 6 -1 11.7895 2.24714 13.3601 
3979 6 -1 33.791 16.1962 14.0885 
3874 6 -1 31.1726 12.627 18.1263 
4058 6 -1 37.664 18.1848 19.2262 
3875 6 -1 35.6561 18.7544 40.8282 
4023 6 -1 39.5061 2.91183 34.0116 
4053 6 -1 11.8068 10.1496 30.1136 
3941 6 -1 21.5635 18.4549 22.8192 
3939 6 -1 0.21901 10.5851 37.7155 
3894 6 -1 21.1307 8.04075 31.2658 
3957 6 -1 11.4849 7.0064 33.3491 
3896 6 -1 35.8433 19.5328 34.9152 
4027 6 -1 9.69933 17.0986 26.4491 
3967 6 -1 24.5599 5.16782 38.3289 
3919 6 -1 20.328 12.0739 35.4798 
3922 6 -1 16.1973 5.71731 36.8388 
3945 6 -1 14.4687 1.03235 35.3073 
4032 6 -1 16.6253 13.4519 24.9533 
3879 6 -1 2.25727 15.5573 40.1624 
4034 6 -1 11.3204 14.464 35.3944 
4051 6 -1 3.05365 4.96042 34.864 
3889 6 -1 17.842 12.1176 33.7484 
3966 6 -1 23.7986 0.863947 31.7102 
4009 6 -1 27.8858 5.21502 32.441 
3929 6 -1 5.0188 9.68414 27.1591 
3959 6 -1 3.42499 18.6926 33.267 
3946 6 -1 9.99442 15.3489 40.5615 
3938 6 -1 2.63549 10.5669 28.7676 
3871 6 -1 1.57511 8.37809 21.7234 
3984 6 -1 1.30183 19.1537 37.1072 
3932 6 -1 28.0605 15.2557 26.8609 
3991 6 -1 6.18477 14.1588 22.0189 
3976 6 -1 21.0633 12.3803 38.7984 
4045 6 -1 15.0552 5.24235 28.5304 
4063 6 -1 37.7241 15.5666 26.0418 
3950 6 -1 22.1346 3.17995 27.9889 
3873 6 -1 8.87697 5.38631 22.6029 
3955 6 -1 16.1711 12.4891 37.1861 
3992 6 -1 7.50763 12.3107 34.8206 
3876 6 -1 31.4243 7.95501 35.0695 
3978 6 -1 25.8367 2.56872 37.2853 
3904 6 -1 25.2344 12.8775 33.28 
4050 6 -1 8.34206 5.68209 31.6261 
3892 6 -1 3.46771 19.8015 31.5247 
3872 6 -1 17.7519 15.7796 31.8909 
4061 6 -1 15.3967 15.8347 35.2584 
3961 6 -1 7.53172 7.13339 38.2387 
3970 6 -1 37.1831 19.6558 25.499 
4026 6 -1 36.6982 13.8198 35.4746 
3902 6 -1 5.2972 1.63256 39.5874 
4068 6 -1 9.39584 19.7179 22.1302 
3887 6 -1 10.0983 4.12209 21.8906 
3886 6 -1 3.92715 16.8284 28.5067 
4046 6 -1 36.4788 9.24398 33.0929 
3960 6 -1 39.1599 18.7074 29.961 
3996 6 -1 21.691 0.564565 22.1102 
3909 6 -1 23.0475 0.832747 40.3037 
4006 6 -1 29.1707 14.7601 37.7021 
3952 6 -1 13.8382 4.72998 30.9528 
3962 6 -1 10.4808 15.8886 24.607 
3987 6 -1 19.861 13.4234 25.3296 
4008 6 -1 33.2624 9.22316 32.9223 
4005 6 -1 30.9796 8.54045 40.9157 
4012 6 -1 25.1473 15.7671 26.6984 
3924 6 -1 4.9428 4.26702 38.4262 
4021 6 -1 27.6045 5.32989 34.7803 
3834 5 3 2.23804 15.7514 33.0442 
3933 6 -1 7.57985 15.4056 38.5712 
3928 6 -1 22.1118 16.1415 38.1183 
3926 6 -1 33.8331 14.836 22.1205 
3973 6 -1 17.7462 19.7323 30.2522 
3998 6 -1 26.1533 35.6541 18.7963 
3913 6 -1 10.5484 26.7866 10.7168 
3943 6 -1 19.1575 35.2274 18.0436 
3931 6 -1 17.9263 26.8208 19.4798 
3914 6 -1 3.38635 21.1762 15.8539 
3942 6 -1 17.3262 38.3681 13.0516 
3940 6 -1 35.3699 21.9857 20.9319 
4062 6 -1 15.5851 27.1003 15.3937 
3912 6 -1 16.0359 31.2053 15.6189 
3826 5 3 18.4105 23.6407 8.04111 
3832 5 3 20.6995 21.0782 13.4026 
3866 5 3 38.9084 34.1269 5.50794 
3802 5 3 24.3454 29.5715 9.77949 
3818 5 3 26.2015 32.9769 4.85446 
3853 5 3 16.5247 35.3216 5.32016 
3825 5 3 13.0037 38.5849 1.01322 
3829 5 3 25.0104 35.4299 3.43315 
3815 5 3 13.0123 39.4509 9.25034 
3910 6 -1 5.57161 26.2832 13.1166 
4052 6 -1 22.0541 25.1586 15.4704 
4066 6 -1 35.3419 32.9644 3.55474 
3980 6 -1 4.1133 29.3255 7.19648 
3836 5 3 1.21867 21.0568 4.47483 
3953 6 -1 11.1201 28.0953 15.1343 
3816 5 3 9.6353 24.6223 2.00153 
3842 5 3 6.75391 39.6844 5.34055 
3855 5 3 28.7244 24.2494 7.38101 
3840 5 3 18.6992 39.8594 3.6198 
3807 5 3 14.7412 29.3969 5.41195 
3906 6 -1 33.6771 39.229 17.1678 
4000 6 -1 36.9463 31.8776 17.2252 
3821 5 3 28.8003 22.4507 9.12817 
3803 5 3 33.9251 27.3142 2.72388 
4003 6 -1 20.0124 20.7811 14.991 
3817 5 3 14.3985 30.8923 3.01147 
3981 6 -1 28.4071 28.6085 14.7099 
3854 5 3 36.4082 34.401 2.85163 
3801 5 3 29.373 20.9975 4.60818 
3843 5 3 6.771 34.4698 1.87928 
3949 6 -1 37.9327 38.0591 18.5132 
3867 5 3 16.7819 29.3904 3.99307 
3831 5 3 13.6555 22.5405 9.36847 
3841 5 3 11.9886 23.0897 5.25979 
3833 5 3 27.9299 23.1386 3.26704 
3804 5 3 22.6674 35.362 6.09117 
4040 6 -1 11.9885 30.9686 10.3379 
3983 6 -1 34.2019 29.3909 10.9221 
3810 5 3 17.7931 34.124 13.2719 
3848 5 3 12.5506 35.1046 8.17998 
3969 6 -1 7.49819 27.3098 16.4765 
3852 5 3 2.98323 23.4592 5.79799 
3837 5 3 15.9551 21.7707 8.53586 
3954 6 -1 37.3492 28.6122 20.5388 
3999 6 -1 1.41966 35.6001 20.3103 
3846 5 3 23.9934 39.8294 4.77998 
4029 6 -1 18.7502 23.5528 26.302 
4056 6 -1 8.02163 29.8947 21.5745 
3877 6 -1 16.3973 25.3766 37.5909 
3994 6 -1 35.8321 20.5362 32.0426 
3888 6 -1 18.7907 27.7715 40.9907 
3918 6 -1 35.8251 26.9547 25.946 
3925 6 -1 16.9823 29.0531 26.6411 
3977 6 -1 9.66023 35.5347 29.9575 
4017 6 -1 3.35516 35.417 22.8129 
3921 6 -1 3.06678 34.692 25.3638 
3893 6 -1 31.214 24.3808 29.6303 
4002 6 -1 13.262 33.9428 21.7259 
3899 6 -1 32.6724 24.8146 21.4115 
3901 6 -1 26.709 26.0084 29.7321 
4001 6 -1 32.02 21.8581 37.4913 
3972 6 -1 7.01975 31.211 40.839 
3975 6 -1 7.54569 34.4395 30.9809 
3937 6 -1 18.9815 31.3268 40.5057 
3982 6 -1 21.6515 30.2883 35.423 
3883 6 -1 27.0199 28.203 39.7548 
3986 6 -1 16.4718 26.9455 21.274 
4059 6 -1 22.9737 20.1099 29.9661 
4033 6 -1 19.1822 27.4882 32.9589 
3868 6 -1 5.75446 27.5508 35.8166 
4054 6 -1 30.7948 34.9043 29.0351 
3835 5 3 21.8768 23.4606 28.3751 
3964 6 -1 28.9988 25.8987 31.6715 
4020 6 -1 39.1622 39.1322 33.1028 
4015 6 -1 35.5129 23.0186 31.906 
3993 6 -1 21.4844 21.1461 24.3686 
3920 6 -1 32.4147 24.2806 35.3462 
3958 6 -1 19.9051 33.9427 37.6746 
4022 6 -1 25.3976 30.8884 25.6621 
3900 6 -1 21.1888 32.9008 32.93 
3935 6 -1 15.6008 24.9466 40.4179 
4035 6 -1 35.5932 25.4526 33.9654 
3947 6 -1 11.9062 36.552 27.1035 
3997 6 -1 28.2703 25.5988 24.3206 
3989 6 -1 15.4 39.279 28.1872 
3965 6 -1 19.2917 30.1389 29.7242 
3907 6 -1 5.27762 27.3272 29.6986 
4024 6 -1 29.826 36.5976 39.6522 
4016 6 -1 13.9272 33.3735 30.2512 
3963 6 -1 33.282 26.9786 30.4182 
3930 6 -1 1.07157 25.5605 31.8871 
3944 6 -1 29.5802 34.6329 37.5372 
4060 6 -1 1.50852 38.6592 37.975 
4065 6 -1 22.961 20.1995 27.059 
3934 6 -1 27.5882 31.8999 39.2595 
3988 6 -1 9.46028 31.8725 35.723 
4039 6 -1 16.1379 22.8522 26.4493 
4041 6 -1 25.0866 25.6416 28.4434 
3898 6 -1 29.4387 33.0779 39.8939 
3917 6 -1 2.61884 39.0124 31.5318 
4018 6 -1 10.9524 38.4606 32.7798 
4047 6 -1 17.0307 36.8926 30.2912 
3995 6 -1 33.2415 36.0367 35.7568 
3882 6 -1 9.37776 28.6636 28.784 
4031 6 -1 17.3362 35.1753 36.9996 
4055 6 -1 21.2858 34.4182 27.1438 
4043 6 -1 13.1245 39.7232 32.9811 
3990 6 -1 5.0633 25.5284 32.0573 
3885 6 -1 18.7768 29.813 21.6553 
4013 6 -1 10.7806 39.5142 40.6991 
3880 6 -1 23.954 32.6314 35.2076 
3891 6 -1 38.4058 25.5567 28.6301 
3884 6 -1 28.5424 30.6361 24.4209 
4044 6 -1 -0.0618716 29.3097 23.8499 
3905 6 -1 33.4285 22.4784 36.8295 
4036 6 -1 37.0748 21.6428 40.2886 
3915 6 -1 31.9364 35.1664 26.8606 
3911 6 -1 6.05311 36.952 33.3688 
3971 6 -1 27.2529 25.0149 25.4789 
3948 6 -1 27.5088 24.6496 38.3553 
4049 6 -1 19.3944 21.1451 21.0395 
ITEM: TIMESTEP
7000
ITEM: NUMBER OF ATOMS
268
ITEM: BOX BOUNDS pp pp ff
0 40
0 40
0 42
ITEM: ATOMS id type q x y z 
4003 6 -1 27.1065 16.7235 16.7188 
3985 6 -1 3.2512 3.82582 7.77443 
3806 5 3 39.3168 4.85332 8.22908 
3824 5 3 18.8008 1.25883 1.5179 
3843 5 3 1.04887 3.52311 8.13855 
4013 6 -1 39.6072 5.75533 20.7671 
3842 5 3 10.7329 4.23977 3.1275 
4001 6 -1 29.2987 15.3247 15.9609 
3834 5 3 4.94796 10.317 4.36857 
3839 5 3 33.0479 9.68707 3.92268 
3838 5 3 8.04873 9.45622 7.41114 
4010 6 -1 25.0409 8.85694 1.11377 
3974 6 -1 25.2341 8.30751 15.6105 
3819 5 3 30.0906 10.0277 2.50528 
3859 5 3 36.0895 10.1845 2.76763 
3927 6 -1 33.2035 4.90733 1.90375 
3827 5 3 7.20233 13.0767 6.72274 
4009 6 -1 9.91419 14.5303 18.7666 
3813 5 3 10.2535 11.8715 4.03086 
3832 5 3 21.3811 19.2652 6.53288 
3864 5 3 8.00969 8.56204 4.98083 
3994 6 -1 5.73747 14.7752 17.6619 
3845 5 3 12.6521 6.94244 4.87437 
4048 6 -1 15.8257 6.66368 20.2129 
3965 6 -1 6.81179 0.581676 20.5362 
3963 6 -1 36.9487 15.855 10.0056 
3807 5 3 11.2881 17.7947 4.81985 
3895 6 -1 0.48744 2.42991 3.96823 
3851 5 3 3.45443 17.7837 4.22518 
3910 6 -1 1.11814 11.7232 16.2781 
4012 6 -1 36.2831 4.15934 10.9002 
3958 6 -1 19.8779 16.0323 19.4829 
4037 6 -1 10.4534 2.36314 2.9976 
4047 6 -1 38.9939 1.20828 19.3607 
3809 5 3 26.0322 7.45913 10.7524 
3863 5 3 29.5943 2.54335 2.45092 
3856 5 3 29.0832 6.18212 1.12408 
4038 6 -1 5.26983 1.22353 19.6952 
3865 5 3 37.3482 12.533 3.2127 
3822 5 3 4.38873 16.5577 10.9139 
3828 5 3 18.3255 5.66223 4.97702 
3862 5 3 8.27279 15.6791 10.9885 
3857 5 3 31.2503 7.56983 1.49152 
3850 5 3 27.0846 3.69655 15.669 
3836 5 3 1.16005 17.0262 8.9938 
3940 6 -1 14.87 16.2998 14.9345 
3811 5 3 26.4073 17.2037 10.159 
4042 6 -1 24.6489 17.7922 11.8196 
3814 5 3 9.32831 18.5977 1.07746 
4030 6 -1 30.6666 13.0916 7.07945 
3986 6 -1 37.958 1.6298 8.62436 
3812 5 3 32.822 6.10034 6.50639 
4007 6 -1 22.3889 12.4015 18.7946 
3899 6 -1 34.5772 19.5615 20.8227 
4017 6 -1 22.7061 9.27909 18.1531 
3818 5 3 20.9526 2.90862 10.2954 
4066 6 -1 29.5409 4.64798 16.2684 
3825 5 3 17.9228 2.66192 1.25861 
3844 5 3 27.8954 13.1182 8.86022 
3979 6 -1 35.896 17.5245 11.1102 
3918 6 -1 26.7908 12.2753 14.9728 
3830 5 3 2.23661 10.6588 5.91944 
3897 6 -1 23.9537 1.05204 13.0507 
3916 6 -1 29.1663 9.0889 2.08728 
3901 6 -1 18.5882 15.7717 18.0928 
3841 5 3 9.35755 16.2491 12.9947 
3887 6 -1 37.1982 16.3345 29.1653 
4018 6 -1 30.939 11.4711 32.2305 
3908 6 -1 4.22926 12.6474 28.1117 
3989 6 -1 4.92195 9.57582 25.8704 
4058 6 -1 0.52355 7.14289 38.9272 
3969 6 -1 34.7437 18.8428 32.0888 
3991 6 -1 8.05321 14.2041 36.0546 
4032 6 -1 26.7695 19.2264 21.7862 
3987 6 -1 21.937 15.941 36.4698 
3956 6 -1 9.02887 9.50549 38.1431 
3924 6 -1 18.5083 13.9506 23.6412 
3982 6 -1 39.6047 15.0758 39.3382 
3915 6 -1 11.3074 15.2244 39.4563 
3912 6 -1 27.8916 15.8246 30.8238 
3923 6 -1 1.69082 3.09503 23.7248 
4052 6 -1 36.3905 5.04634 24.9788 
4057 6 -1 16.0697 14.7948 35.1929 
3950 6 -1 26.7928 8.1046 37.1115 
3997 6 -1 9.33601 10.09 39.8733 
4035 6 -1 17.1235 7.77076 39.4009 
3938 6 -1 10.0174 12.9213 28.1098 
3935 6 -1 16.9716 8.58284 40.2603 
4053 6 -1 22.7418 14.2735 23.6824 
3894 6 -1 0.276623 8.73061 25.4263 
4033 6 -1 30.835 12.8911 35.1632 
3914 6 -1 38.4313 13.6918 26.7504 
3973 6 -1 24.9618 0.355522 29.1422 
3932 6 -1 8.17932 13.5932 27.4454 
4011 6 -1 25.7059 9.16997 27.6627 
3920 6 -1 5.61537 16.5014 25.1572 
4051 6 -1 37.9566 0.483952 35.0396 
4050 6 -1 5.09974 4.7885 24.3714 
3878 6 -1 8.81785 5.90216 38.0548 
3947 6 -1 28.8693 0.665613 21.7302 
3868 6 -1 11.4309 17.6202 23.7259 
3885 6 -1 27.2717 9.22482 23.9222 
3871 6 -1 23.1663 4.94858 24.3497 
4000 6 -1 26.0466 6.46934 23.4602 
4063 6 -1 29.1922 4.94262 22.7867 
3919 6 -1 39.815 5.9577 37.1333 
4027 6 -1 1.0532 19.8207 21.0522 
4008 6 -1 24.7117 18.1021 38.3998 
4046 6 -1 30.4537 14.9143 32.0235 
3892 6 -1 30.0238 0.35742 37.7859 
3943 6 -1 26.2771 8.74845 31.0553 
4034 6 -1 3.22535 2.88709 29.1492 
3995 6 -1 5.31324 16.642 39.3761 
3936 6 -1 0.0987079 13.965 27.4934 
4026 6 -1 39.2863 18.1173 36.7744 
4025 6 -1 8.17477 8.41232 39.5447 
4029 6 -1 14.1144 14.2312 29.3913 
3922 6 -1 34.6145 14.7168 30.9192 
3967 6 -1 28.0105 8.33876 33.7635 
3978 6 -1 26.1963 5.25362 36.8765 
3980 6 -1 8.619 19.7998 21.2697 
3921 6 -1 9.01929 0.578855 25.0638 
3939 6 -1 13.1841 16.294 38.0575 
4054 6 -1 0.709817 0.838117 32.1781 
3961 6 -1 29.1107 6.64525 35.1146 
3955 6 -1 39.1348 5.66362 34.4342 
3976 6 -1 11.7421 10.9115 30.1422 
3874 6 -1 7.71105 18.1883 21.9381 
3984 6 -1 7.39348 3.22024 36.6162 
4015 6 -1 29.6617 15.2206 29.0633 
3873 6 -1 39.1913 10.8823 26.7178 
3946 6 -1 12.8826 13.2574 34.9604 
3900 6 -1 16.8903 5.28772 27.3443 
3931 6 -1 15.3733 7.69384 28.2025 
3990 6 -1 3.65598 8.24578 35.1923 
3875 6 -1 13.4648 12.2924 40.8628 
4060 6 -1 37.9928 4.7604 29.8985 
4024 6 -1 30.1431 8.85928 39.9576 
4028 6 -1 35.6177 14.7932 29.8208 
3951 6 -1 27.0604 18.6157 37.176 
3925 6 -1 4.9673 31.1384 19.9518 
3937 6 -1 31.9103 32.4983 19.5667 
3835 5 3 15.2222 21.4671 19.0208 
3877 6 -1 36.7766 24.2128 14.1258 
3960 6 -1 18.4099 32.0345 13.7067 
3858 5 3 11.1011 37.4019 9.94516 
3833 5 3 34.2893 24.1307 5.24944 
3804 5 3 23.2394 39.7289 6.39302 
3949 6 -1 2.84026 31.1096 11.7928 
3962 6 -1 18.674 33.051 20.4019 
3817 5 3 10.8676 27.3424 4.69889 
3867 5 3 21.0962 27.7793 2.98235 
4014 6 -1 35.7038 20.3866 6.78512 
3803 5 3 30.3177 24.4076 2.76146 
3959 6 -1 28.4259 20.1378 19.7887 
3964 6 -1 21.8985 32.9484 17.9192 
3846 5 3 21.9523 33.1727 8.12226 
4039 6 -1 22.1004 33.6961 20.458 
4006 6 -1 23.477 33.5833 14.6155 
3829 5 3 25.1205 37.3243 1.30503 
4056 6 -1 6.96492 38.3712 15.8693 
3854 5 3 5.59584 34.4742 1.44424 
3816 5 3 6.72194 21.4277 10.1533 
3820 5 3 30.2281 26.7199 5.72351 
3852 5 3 4.66035 21.5949 9.83325 
3884 6 -1 16.0363 24.0381 14.578 
3831 5 3 10.3244 28.4925 12.4892 
4004 6 -1 39.7404 37.2967 2.89131 
3826 5 3 15.4408 30.3781 9.55903 
3805 5 3 35.8223 39.0187 1.79244 
3847 5 3 6.09699 32.1664 5.46262 
3855 5 3 33.6249 27.7501 4.11257 
3821 5 3 37.8735 22.4144 4.60055 
3861 5 3 5.06348 25.9482 5.71894 
3917 6 -1 36.1889 29.2902 13.753 
4005 6 -1 4.30733 39.2344 16.3667 
3802 5 3 24.3407 25.3819 7.4562 
3860 5 3 2.59521 36.7778 2.26435 
3837 5 3 19.0551 23.286 6.28336 
3815 5 3 15.4671 37.9146 4.61 
3929 6 -1 38.539 21.8778 16.8939 
3853 5 3 18.826 37.8201 3.38348 
3849 5 3 25.822 32.2882 6.57179 
3866 5 3 1.73611 35.6474 7.38298 
3823 5 3 1.36909 21.2608 7.7525 
3998 6 -1 24.0843 39.5885 19.2337 
4002 6 -1 24.5822 25.4629 12.1169 
3913 6 -1 36.2455 37.5563 16.4083 
3953 6 -1 8.56372 30.6798 6.02689 
3890 6 -1 27.561 24.5785 3.29515 
3848 5 3 6.98778 37.4829 4.25267 
3983 6 -1 2.41015 30.0259 4.56955 
3808 5 3 24.628 22.1658 6.25228 
3840 5 3 25.1886 39.3493 5.31252 
3810 5 3 27.753 26.839 1.62911 
3801 5 3 33.4716 20.9626 12.0439 
4064 6 -1 11.3521 20.1171 9.50709 
3993 6 -1 27.3196 20.8858 28.5287 
3928 6 -1 32.3373 24.1694 25.4312 
4049 6 -1 8.70662 30.3202 28.6423 
3872 6 -1 10.8138 24.3877 36.5088 
3981 6 -1 33.4812 26.5748 28.7087 
3971 6 -1 13.5704 35.1505 26.9547 
3996 6 -1 32.4007 39.6417 38.986 
3933 6 -1 25.5396 33.5674 35.6698 
3954 6 -1 2.18922 25.0609 25.767 
4022 6 -1 0.0916308 25.176 32.6056 
3886 6 -1 19.3439 25.3368 35.0936 
4044 6 -1 14.8699 34.8707 37.1578 
4045 6 -1 35.6804 26.1045 32.4651 
3869 6 -1 34.6876 36.1636 29.6654 
3942 6 -1 4.02812 22.3474 23.5974 
3896 6 -1 30.9381 27.5929 33.1215 
3992 6 -1 5.054 22.0564 35.1314 
3970 6 -1 10.2087 37.6273 29.82 
3944 6 -1 24.6743 23.0767 22.5794 
4059 6 -1 18.0887 23.1141 21.3744 
3952 6 -1 30.5343 37.2371 34.3896 
4041 6 -1 26.3913 31.9317 35.0204 
3902 6 -1 6.8483 32.9326 40.1424 
3891 6 -1 19.1362 24.6827 33.8737 
3907 6 -1 0.0377524 21.5264 38.5188 
3882 6 -1 38.8343 31.0976 25.4496 
3903 6 -1 24.2593 37.0698 24.4635 
4067 6 -1 3.23137 27.4075 37.1079 
3926 6 -1 7.0253 28.8403 35.0249 
3977 6 -1 9.36668 26.5221 40.0182 
3975 6 -1 30.953 21.1105 28.8422 
4019 6 -1 20.1985 38.1079 40.7631 
3966 6 -1 20.9659 31.3593 34.5563 
4016 6 -1 21.4298 30.9931 22.4152 
4055 6 -1 2.98124 30.0112 27.0089 
3909 6 -1 15.9771 30.2505 38.1293 
4023 6 -1 25.8233 38.7186 34.6814 
3945 6 -1 6.03139 32.8014 32.8068 
3988 6 -1 36.4001 22.9138 24.3326 
4061 6 -1 6.35657 26.8933 30.1436 
3904 6 -1 39.6489 33.5204 33.9672 
3880 6 -1 17.9103 27.6871 33.6142 
3911 6 -1 21.5988 35.4113 38.3079 
3879 6 -1 21.0119 29.796 28.1826 
4043 6 -1 39.2418 30.5872 31.6886 
4020 6 -1 29.4363 34.4614 40.3524 
3948 6 -1 22.2892 20.9918 36.6347 
3941 6 -1 17.0084 24.9909 33.6658 
4036 6 -1 25.711 28.655 39.8362 
3972 6 -1 6.97898 22.2059 27.3029 
3870 6 -1 11.1119 28.7662 27.529 
3888 6 -1 9.75351 32.9764 30.971 
3883 6 -1 37.1652 33.0748 38.5574 
3934 6 -1 9.87347 36.9608 28.5897 
3898 6 -1 9.18133 24.6471 22.8597 
4021 6 -1 37.7052 22.6568 29.4971 
3999 6 -1 39.5735 31.5676 22.036 
4031 6 -1 23.9477 39.1704 37.0495 
4065 6 -1 27.5554 35.3042 28.3838 
4040 6 -1 16.3702 31.6437 24.5565 
3930 6 -1 16.9813 20.828 28.886 
3957 6 -1 37.8186 39.2734 38.1954 
3876 6 -1 4.26567 37.4049 37.4661 
3906 6 -1 6.93984 37.4378 22.6463 
3968 6 -1 1.64917 22.4928 21.5327 
4062 6 -1 23.4978 37.0341 22.2193 
3889 6 -1 34.2058 39.626 32.4982 
3893 6 -1 25.3484 39.7354 27.0542 
3881 6 -1 0.185682 28.0629 21.5501 
3905 6 -1 25.6367 39.3411 33.3694 
4068 6 -1 7.77132 27.4986 21.3354 
ITEM: TIMESTEP
8000
ITEM: NUMBER OF ATOMS
268
ITEM: BOX BOUNDS pp pp ff
0 40
0 40
0 42
ITEM: ATOMS id type q x y z 
3895 6 -1 8.64724 1.04814 2.06335 
3976 6 -1 35.6025 12.8823 17.8543 
3828 5 3 23.1375 6.31614 2.13257 
3914 6 -1 24.294 9.58983 20.1854 
3927 6 -1 35.0516 3.67616 14.879 
3863 5 3 19.8654 0.738991 10.089 
3856 5 3 34.557 3.14282 5.4594 
3967 6 -1 12.4954 6.75895 11.1816 
4067 6 -1 31.0434 19.2213 20.4352 
3834 5 3 6.01377 13.6639 6.78216 
3813 5 3 13.4857 17.1067 9.19113 
3864 5 3 33.9227 10.3931 12.9541 
3839 5 3 0.67397 9.50217 2.5065 
3819 5 3 39.4512 18.4007 8.79423 
3857 5 3 33.8776 7.12792 9.47324 
3916 6 -1 35.2269 14.5877 8.31934 
3859 5 3 22.017 8.80838 10.7261 
3865 5 3 38.5262 8.43478 4.35046 
3807 5 3 13.1502 14.3692 5.62865 
4025 6 -1 16.5965 15.9979 18.5322 
3840 5 3 29.7198 2.35396 4.01474 
3988 6 -1 22.4177 17.3155 16.7939 
3879 6 -1 17.2713 19.4393 18.1951 
3983 6 -1 8.5307 13.004 20.5991 
3956 6 -1 36.5461 8.55877 20.8787 
3805 5 3 33.8128 2.50259 2.42616 
3858 5 3 8.9304 6.26601 6.46592 
3818 5 3 18.3792 4.11719 9.60068 
4062 6 -1 39.0085 4.53575 19.4926 
3812 5 3 33.7507 0.164968 8.14097 
3806 5 3 0.797653 12.1601 3.88347 
4027 6 -1 8.94632 10.4684 19.4304 
3830 5 3 0.806429 12.8621 4.97472 
3838 5 3 2.55735 10.0304 4.04614 
3827 5 3 14.6552 10.7468 5.06343 
3844 5 3 31.7387 4.45918 7.4279 
3836 5 3 1.97113 7.70986 12.02 
4004 6 -1 4.44326 0.238252 5.05171 
3829 5 3 30.9787 5.15153 4.54824 
3845 5 3 9.71688 3.06999 13.9404 
3811 5 3 19.5856 18.7826 1.57911 
3963 6 -1 34.6069 19.422 7.9797 
3852 5 3 35.7887 14.0867 9.75658 
4037 6 -1 9.35301 1.315 15.4982 
3837 5 3 17.0959 16.8515 10.0255 
3860 5 3 38.5846 4.24598 9.31824 
4001 6 -1 33.6607 12.6123 10.1008 
3809 5 3 26.9928 2.28676 4.70722 
4009 6 -1 16.0466 9.54225 12.9882 
3893 6 -1 5.8502 0.623416 14.6206 
3862 5 3 36.8916 18.8284 2.52517 
3841 5 3 12.0986 16.4735 3.48488 
4039 6 -1 19.627 0.501635 26.9946 
4050 6 -1 4.34399 5.26767 22.5233 
3891 6 -1 8.44741 12.3417 40.4273 
3995 6 -1 26.5726 2.08245 22.9914 
4040 6 -1 16.5595 13.0509 39.9208 
3871 6 -1 2.0143 1.09055 26.2618 
3876 6 -1 15.5243 16.4522 34.8454 
4026 6 -1 35.3234 10.6791 39.0748 
3944 6 -1 13.9676 17.7982 22.8114 
4066 6 -1 25.1533 11.8048 36.8789 
3942 6 -1 33.0723 14.7224 34.4099 
3980 6 -1 4.11782 13.4751 31.1807 
3868 6 -1 8.35034 7.07175 23.4127 
4053 6 -1 30.7358 13.1787 25.301 
4032 6 -1 33.9605 16.3674 24.9152 
4030 6 -1 22.2506 9.61367 22.7236 
3994 6 -1 6.8065 1.66384 24.7617 
3996 6 -1 3.50766 9.19431 35.4256 
3900 6 -1 17.0224 19.2975 28.3161 
3899 6 -1 0.896607 13.3462 28.861 
4060 6 -1 25.5463 5.88211 27.4845 
3908 6 -1 12.665 12.3183 37.9872 
3959 6 -1 16.8404 2.8649 23.4599 
3931 6 -1 31.7321 14.5395 37.1122 
3955 6 -1 11.9593 0.788281 31.1535 
3932 6 -1 7.46178 9.65673 34.6408 
3873 6 -1 35.1747 15.316 32.2464 
3936 6 -1 13.5823 14.2585 37.9916 
4047 6 -1 3.99745 10.29 21.4209 
3905 6 -1 22.2378 12.8219 25.3436 
3962 6 -1 16.2861 17.2561 24.0769 
4029 6 -1 38.4757 11.9011 28.07 
3998 6 -1 26.6079 17.5667 33.1047 
4052 6 -1 10.8543 15.7113 36.8678 
3972 6 -1 4.69581 14.8985 24.2031 
4015 6 -1 22.8506 1.67564 21.8041 
3921 6 -1 4.31991 5.57324 29.5526 
3977 6 -1 2.72351 16.8841 31.8477 
4045 6 -1 19.8205 3.33502 40.52 
4054 6 -1 14.0823 3.53697 33.8434 
3984 6 -1 23.2652 13.1562 30.628 
3974 6 -1 21.1822 14.5979 22.5397 
4049 6 -1 18.2017 12.0577 33.8875 
4051 6 -1 31.7667 8.41124 33.2326 
3934 6 -1 16.3019 17.6698 40.1032 
3926 6 -1 27.3125 7.63252 31.871 
4018 6 -1 9.75474 11.6426 31.3816 
3964 6 -1 11.8558 6.25205 26.5053 
3961 6 -1 22.6077 12.4286 35.0398 
4048 6 -1 13.013 3.06815 29.8062 
4007 6 -1 10.3105 18.5448 27.4956 
4041 6 -1 15.0211 5.84128 39.6379 
4046 6 -1 33.0252 17.7762 38.2108 
3969 6 -1 10.7084 16.3792 39.3861 
3947 6 -1 34.0828 14.9666 23.9365 
3888 6 -1 30.8139 18.5089 36.4049 
3918 6 -1 33.632 0.126474 35.7836 
3970 6 -1 31.1815 5.95177 34.811 
3978 6 -1 26.6644 4.19253 23.9158 
3850 5 3 26.5147 1.56056 26.328 
4036 6 -1 19.0851 1.21343 35.2386 
3875 6 -1 26.5554 5.61155 40.8174 
3950 6 -1 22.174 11.9331 21.5066 
3981 6 -1 31.1062 17.0395 27.923 
4024 6 -1 33.4666 9.6576 27.5617 
3975 6 -1 27.749 3.69112 40.9101 
3917 6 -1 32.6848 18.1809 33.4674 
3939 6 -1 7.67246 6.80137 35.7522 
3982 6 -1 18.9053 3.58428 32.7266 
3909 6 -1 0.020986 8.38916 27.353 
3954 6 -1 0.707803 18.2105 25.3241 
4042 6 -1 24.7358 17.535 23.7664 
4056 6 -1 11.6558 17.6933 34.1536 
4065 6 -1 26.2693 18.8255 36.5796 
3889 6 -1 5.3916 0.445323 37.8266 
3906 6 -1 25.4111 19.1528 39.1725 
4012 6 -1 36.4727 33.5333 7.12088 
3869 6 -1 30.9359 24.5922 15.2306 
3853 5 3 16.6338 37.9668 12.5263 
3990 6 -1 3.04671 20.596 20.4803 
4021 6 -1 30.0575 29.1948 18.2959 
3890 6 -1 27.3384 26.7077 4.90488 
4016 6 -1 19.2525 26.464 15.08 
3833 5 3 34.1407 23.3133 5.35508 
3803 5 3 30.3739 28.5308 11.0862 
3992 6 -1 4.95534 27.3347 17.7021 
3945 6 -1 30.3226 27.9965 19.6888 
3878 6 -1 1.44539 33.1642 16.0097 
3817 5 3 2.55723 31.9795 14.0941 
3896 6 -1 12.9178 33.3794 18.6903 
3867 5 3 34.394 28.7644 1.24981 
3810 5 3 24.7901 25.6467 2.25294 
3855 5 3 0.0601913 27.5915 2.37415 
3854 5 3 1.30325 37.8268 4.67977 
3979 6 -1 35.2024 24.5617 4.7959 
3808 5 3 19.1956 20.2086 5.7279 
3848 5 3 9.8412 32.8766 9.89145 
3822 5 3 5.11788 21.1386 8.48799 
3815 5 3 16.2077 35.6308 8.2854 
3965 6 -1 9.4042 31.748 20.9357 
3816 5 3 9.29125 23.9823 9.01725 
3861 5 3 16.4308 29.2314 3.64717 
4064 6 -1 8.92131 22.4337 21.029 
3951 6 -1 4.23796 38.2185 14.8468 
3814 5 3 9.76588 22.2523 5.29628 
3802 5 3 27.8825 23.6539 10.1242 
3820 5 3 33.2836 23.5314 3.70041 
3821 5 3 34.2535 21.6727 7.41517 
3985 6 -1 1.797 35.1929 13.3236 
4014 6 -1 33.394 35.5788 2.43897 
3847 5 3 13.6523 24.2901 7.8212 
3953 6 -1 8.9765 39.5896 4.82634 
3826 5 3 6.414 26.6496 8.72214 
3846 5 3 23.5846 21.8871 3.01951 
3849 5 3 19.6665 33.1248 7.11246 
3941 6 -1 10.1794 28.328 12.0089 
3866 5 3 33.7189 32.7623 7.56218 
3986 6 -1 25.7791 31.5955 11.9192 
4055 6 -1 24.9511 24.386 19.5617 
3804 5 3 28.409 34.1997 4.45922 
3832 5 3 20.1599 21.5216 5.06581 
3924 6 -1 33.6767 27.6426 9.59609 
3851 5 3 1.82884 20.2667 6.36129 
3874 6 -1 28.0044 24.3953 15.5332 
4005 6 -1 4.92717 31.186 10.4034 
3987 6 -1 25.932 28.1414 14.8319 
4002 6 -1 24.7963 28.3214 8.06571 
3801 5 3 31.2347 25.7252 7.0383 
3949 6 -1 35.9816 28.2993 13.7905 
3831 5 3 4.15956 27.1571 13.6739 
3960 6 -1 26.7273 37.5738 14.2445 
3835 5 3 12.2152 37.4037 2.70078 
3823 5 3 37.0835 21.2102 4.92095 
4003 6 -1 36.9645 20.0306 17.6445 
3825 5 3 21.2391 32.7502 5.59988 
3989 6 -1 0.194154 37.8562 14.9305 
3824 5 3 27.4 36.8204 6.7557 
3843 5 3 32.9705 37.3939 9.77235 
3842 5 3 12.6515 39.5117 1.65773 
3997 6 -1 15.8135 25.5899 27.9577 
3968 6 -1 25.7681 29.7898 37.0412 
3935 6 -1 17.413 22.86 37.1855 
3884 6 -1 6.74196 23.5383 24.3977 
4059 6 -1 25.9777 33.3006 26.9389 
3894 6 -1 14.0981 24.7233 21.8232 
3928 6 -1 3.40338 29.1958 28.1403 
3901 6 -1 10.867 24.2742 31.4277 
3929 6 -1 38.4329 33.4461 26.9523 
3877 6 -1 39.0865 21.471 28.6334 
3881 6 -1 31.4311 25.7508 38.8255 
4068 6 -1 20.0123 33.1288 36.6179 
4063 6 -1 28.4581 21.2491 30.3276 
3885 6 -1 1.74691 35.0494 39.1524 
4028 6 -1 36.3319 37.3486 27.5534 
3910 6 -1 21.051 23.4503 38.4909 
3882 6 -1 28.3345 26.4658 28.8427 
3999 6 -1 4.54397 25.6861 27.9203 
4011 6 -1 11.155 22.9116 35.4087 
3957 6 -1 16.5275 23.6236 27.0368 
4017 6 -1 17.9867 39.1746 33.6745 
3903 6 -1 35.0338 32.2013 25.4135 
3973 6 -1 25.383 31.3429 29.3667 
3920 6 -1 18.8852 37.478 21.8377 
4033 6 -1 27.4423 34.8635 28.7115 
3892 6 -1 5.35161 39.2436 24.2011 
3930 6 -1 7.12871 30.5562 34.7147 
3993 6 -1 22.1739 22.887 30.0108 
3938 6 -1 28.6547 20.9673 31.7539 
3943 6 -1 1.94909 25.1878 32.1229 
3887 6 -1 8.05984 27.915 34.825 
4034 6 -1 20.874 36.11 40.5315 
3907 6 -1 28.7352 22.2751 26.6894 
4010 6 -1 30.613 34.4515 23.5149 
4061 6 -1 9.96717 38.8673 26.6993 
3870 6 -1 18.2704 27.8717 31.7627 
3958 6 -1 10.2701 20.947 38.0825 
4058 6 -1 6.81272 34.6753 25.9914 
3923 6 -1 33.329 27.7219 36.694 
4006 6 -1 26.0866 27.5884 22.5284 
3925 6 -1 28.4652 32.8413 22.7827 
3971 6 -1 21.3699 29.0465 21.0474 
3904 6 -1 16.7859 28.1706 29.6693 
4013 6 -1 28.09 36.9105 22.3732 
4022 6 -1 27.1619 21.1741 37.8118 
3912 6 -1 -0.0235098 38.8124 40.7253 
3872 6 -1 34.4365 29.3981 25.6025 
3922 6 -1 39.7029 25.0868 35.2937 
3937 6 -1 13.4843 36.6346 23.308 
3886 6 -1 29.4518 27.8139 24.9385 
4057 6 -1 22.8778 28.1911 36.0029 
3948 6 -1 24.3021 29.7466 32.8161 
4008 6 -1 25.3139 24.2871 37.2167 
3946 6 -1 13.6271 38.7031 29.4683 
3915 6 -1 29.3608 35.8169 30.391 
3913 6 -1 9.60885 38.3286 35.1575 
4000 6 -1 4.56506 20.9059 32.2057 
3897 6 -1 21.2177 22.7635 28.6356 
3966 6 -1 20.52 37.6814 32.3516 
3880 6 -1 17.5391 21.0849 36.1697 
4043 6 -1 27.7362 31.4596 37.0322 
3933 6 -1 15.3375 25.8876 30.0482 
4023 6 -1 37.4169 38.7419 24.3885 
3898 6 -1 8.84249 33.3986 24.027 
3952 6 -1 29.2865 38.4797 28.8601 
3919 6 -1 15.9015 32.3008 40.2258 
3991 6 -1 32.2908 21.666 36.8314 
3902 6 -1 5.3191 34.1493 34.5205 
4038 6 -1 34.4078 38.2352 26.7668 
4035 6 -1 34.4284 28.7072 36.3337 
3940 6 -1 15.0468 38.0557 27.8936 
3883 6 -1 3.98866 29.5654 36.8558 
4044 6 -1 25.0331 37.2268 35.2551 
4019 6 -1 5.41738 26.0359 25.2696 
3911 6 -1 35.0992 34.1241 32.451 
4031 6 -1 18.3566 36.5739 24.6246 
4020 6 -1 37.2331 27.608 31.7421 
ITEM: TIMESTEP
9000
ITEM: NUMBER OF ATOMS
268
ITEM: BOX BOUNDS pp pp ff
0 40
0 40
0 42
ITEM: ATOMS id type q x y z 
3952 6 -1 17.6089 3.21483 17.5334 
3953 6 -1 0.535745 1.62251 17.2988 
3828 5 3 16.7041 1.52047 5.43106 
3977 6 -1 36.3186 9.7673 20.5586 
4024 6 -1 4.2558 7.92407 12.5161 
3996 6 -1 31.3136 10.1714 16.6806 
3853 5 3 19.5386 0.601127 9.27691 
4050 6 -1 36.2321 4.32431 20.6163 
3805 5 3 29.1605 9.58955 3.75551 
3829 5 3 38.2846 11.2318 2.99754 
3869 6 -1 16.0614 14.602 17.6956 
3839 5 3 35.2538 4.25723 6.43034 
3806 5 3 3.95691 5.1648 4.78189 
3830 5 3 39.982 18.478 8.08842 
3838 5 3 0.676443 8.13453 3.8052 
3827 5 3 15.7787 10.8775 7.49101 
3991 6 -1 11.6341 19.5076 16.91 
3865 5 3 1.81387 2.33999 2.30352 
3924 6 -1 29.05 1.60382 20.8413 
3851 5 3 6.46969 16.8168 8.07896 
3881 6 -1 21.4364 18.3384 18.6578 
4054 6 -1 30.6151 0.301927 19.7993 
3825 5 3 24.0516 4.17075 5.20105 
3841 5 3 14.1374 14.9494 6.84535 
3950 6 -1 24.8458 8.45242 15.1484 
3811 5 3 14.4081 15.6948 2.22148 
3842 5 3 10.1735 2.1287 6.46811 
4023 6 -1 35.6567 2.2797 19.7691 
3862 5 3 32.6771 18.1365 2.30193 
3860 5 3 35.618 0.999565 9.02255 
3858 5 3 7.38054 3.48814 3.08748 
3818 5 3 22.8971 9.36968 8.32004 
3832 5 3 18.766 18.6509 4.6995 
3844 5 3 34.5557 1.47177 19.7428 
3856 5 3 37.3855 7.29639 3.74179 
3813 5 3 14.0448 19.7601 6.56613 
3915 6 -1 28.2502 19.0294 15.8183 
3974 6 -1 15.8699 13.4385 19.9854 
3847 5 3 12.4953 18.1919 3.9974 
3857 5 3 27.2703 12.7618 1.30613 
3995 6 -1 1.93454 7.17115 20.4988 
3972 6 -1 1.46393 5.88781 19.0448 
3834 5 3 4.56668 15.3515 3.48209 
3907 6 -1 21.082 16.4857 19.9866 
3807 5 3 15.4198 13.1529 2.89206 
3837 5 3 12.0081 14.0557 4.22571 
3816 5 3 4.51777 13.9972 6.9597 
3819 5 3 33.2449 17.957 4.63563 
3916 6 -1 0.380522 13.8602 16.2018 
3895 6 -1 10.2025 4.12108 11.3122 
3852 5 3 33.3508 17.89 10.6826 
4067 6 -1 27.6172 10.9432 18.5236 
3812 5 3 36.6869 3.73746 8.34269 