ITEM: TIMESTEP
11000
ITEM: NUMBER OF ATOMS
20
ITEM: BOX BOUNDS pp pp ff
0 15
0 15
0 22
ITEM: ATOMS id type q x y z 
1216 6 -1 4.49506 3.2343 1.29065 
1201 5 3 11.4563 5.44547 1.22306 
1205 6 -1 5.04989 6.90506 5.03417 
1203 5 3 10.2848 4.60963 5.26719 
1218 7 -1 14.4636 4.84582 15.733 
1219 8 -1 2.37564 0.665207 12.4374 
1209 6 -1 2.833 1.12415 20.8756 
1215 6 -1 9.17176 7.11597 13.0935 
1213 6 -1 14.0584 11.1455 1.08919 
1202 5 3 12.6547 7.8938 3.92815 
1204 5 3 6.86563 11.501 1.45122 
1207 6 -1 11.8149 13.8204 3.935 
1208 6 -1 5.61961 9.85019 7.54806 
1212 6 -1 6.11132 14.2879 4.66386 
1214 6 -1 2.0312 10.8262 8.65086 
1210 6 -1 7.06782 12.5296 5.1632 
1206 6 -1 6.45968 12.7494 14.3968 
1217 7 -1 11.4225 11.1268 17.9668 
1220 8 -1 13.9027 11.2233 20.741 
1211 6 -1 8.51757 13.7327 20.5492 
ITEM: TIMESTEP
12000
ITEM: NUMBER OF ATOMS
20
ITEM: BOX BOUNDS pp pp ff
0 15
0 15
0 22
ITEM: ATOMS id type q x y z 
1216 6 -1 4.29898 5.99024 1.70845 
1219 8 -1 0.717374 2.20305 7.24052 
1201 5 3 10.9666 6.45384 4.15471 
1208 6 -1 3.1997 0.659277 10.5998 
1203 5 3 12.621 4.80704 7.73872 
1215 6 -1 8.66062 0.0042174 14.4425 
1217 7 -1 12.2953 1.19067 16.4316 
1218 7 -1 12.6515 5.4441 16.1216 
1220 8 -1 11.0539 1.15381 20.2824 
1211 6 -1 10.1901 2.05668 20.9767 
1209 6 -1 9.56744 4.32671 20.7302 
1213 6 -1 14.3537 10.3332 1.42806 
1204 5 3 6.58775 11.5595 1.86567 
1207 6 -1 13.8456 14.7208 2.81391 
1205 6 -1 2.84414 8.08926 7.32363 
1202 5 3 11.2896 8.3983 4.93023 
1212 6 -1 7.3162 11.9302 6.61207 
1210 6 -1 5.73224 14.6806 6.26937 
1206 6 -1 7.54506 12.737 16.4213 
1214 6 -1 3.36278 8.6514 20.8541 
ITEM: TIMESTEP
13000
ITEM: NUMBER OF ATOMS
20
ITEM: BOX BOUNDS pp pp ff
0 15
0 15
0 22
ITEM: ATOMS id type q x y z 
1214 6 -1 6.64107 5.90383 6.85312 
1216 6 -1 5.43055 6.76524 2.53776 
1203 5 3 9.65272 2.60738 5.80077 
1205 6 -1 13.9613 4.3904 8.36499 
1208 6 -1 1.71157 2.21163 3.87518 
1215 6 -1 11.8299 0.681142 7.96797 
1217 7 -1 2.35029 9.02239 8.32155 
1213 6 -1 13.1843 10.6922 1.12596 
1204 5 3 7.86178 11.5057 4.42522 
1219 8 -1 13.6209 9.67563 9.08859 
1207 6 -1 0.279416 13.5259 2.70512 
1201 5 3 13.2747 7.80266 3.45318 
1202 5 3 11.5698 8.46042 5.5796 
1212 6 -1 9.46821 9.31979 5.69902 
1210 6 -1 5.98102 13.9911 5.95188 
1206 6 -1 6.63714 10.2058 9.05802 
1211 6 -1 11.3225 13.2649 20.7541 
1218 7 -1 9.83801 12.7723 20.7234 
1209 6 -1 9.62764 9.24734 20.9506 
1220 8 -1 12.8174 11.6895 17.4035 
ITEM: TIMESTEP
14000
ITEM: NUMBER OF ATOMS
20
ITEM: BOX BOUNDS pp pp ff
0 15
0 15
0 22
ITEM: ATOMS id type q x y z 
1208 6 -1 0.702805 1.08837 4.98865 
1203 5 3 7.41864 0.668512 4.96853 
1216 6 -1 3.79705 5.7498 3.88164 
1201 5 3 10.7769 7.36075 5.03733 
1214 6 -1 4.24683 5.83239 7.57082 
1217 7 -1 9.25719 1.57891 13.9056 
1218 7 -1 0.0705355 0.807352 16.7989 
1206 6 -1 5.71335 1.02325 17.8844 
1213 6 -1 11.0025 10.9947 1.22797 
1202 5 3 11.5238 9.94064 2.95762 
1207 6 -1 13.2967 13.1507 2.39765 
1204 5 3 8.08879 12.2244 4.22314 
1212 6 -1 5.4985 14.5435 8.50657 
1210 6 -1 10.9469 14.6062 10.0186 
1215 6 -1 1.97475 9.47863 11.9918 
1220 8 -1 3.01245 8.43899 18.1515 
1219 8 -1 14.9018 9.89435 14.8658 
1209 6 -1 8.60299 10.6725 20.758 
1211 6 -1 11.0531 10.1043 20.6052 
1205 6 -1 14.6833 14.5123 19.0904 
ITEM: TIMESTEP
15000
ITEM: NUMBER OF ATOMS
20
ITEM: BOX BOUNDS pp pp ff
0 15
0 15
0 22
ITEM: ATOMS id type q x y z 
1218 7 -1 13.3342 5.50201 7.7743 
1203 5 3 6.50184 2.71634 3.1199 
1208 6 -1 0.290799 0.0613113 3.48189 
1201 5 3 12.6172 6.31892 4.54871 
1216 6 -1 4.7374 7.1746 4.33288 
1215 6 -1 14.7811 1.82472 13.5581 
1206 6 -1 4.8462 1.10621 18.6884 
1220 8 -1 14.0316 0.758542 17.4036 
1213 6 -1 10.365 12.0529 1.15534 
1202 5 3 10.326 10.6518 3.63695 
1207 6 -1 12.7031 14.0291 1.26143 
1204 5 3 8.97873 12.1659 4.19767 
1212 6 -1 8.86906 9.26211 13.2172 
1217 7 -1 2.26239 12.9212 15.0138 
1219 8 -1 12.116 8.83205 17.2928 
1209 6 -1 4.17719 12.3201 20.7947 
1211 6 -1 4.23573 9.41435 16.6803 
1214 6 -1 6.64678 9.74534 13.5014 
1210 6 -1 5.73015 8.24503 15.3745 
1205 6 -1 12.5846 7.79042 20.3224 
ITEM: TIMESTEP
16000
ITEM: NUMBER OF ATOMS
20
ITEM: BOX BOUNDS pp pp ff
0 15
0 15
0 22
ITEM: ATOMS id type q x y z 
1203 5 3 7.19581 2.494 2.20543 
1208 6 -1 1.11859 1.29114 3.44496 
1218 7 -1 13.0518 6.41831 6.40913 
1201 5 3 13.478 7.01284 4.08258 
1214 6 -1 9.75292 1.1247 11.5876 
1215 6 -1 6.12894 1.8282 19.0005 
1209 6 -1 7.1326 7.17714 20.9175 
1217 7 -1 1.22033 3.75553 19.82 
1211 6 -1 10.2729 0.80519 17.1908 
1205 6 -1 13.8577 0.85503 19.7862 
1216 6 -1 5.22997 9.13021 4.45699 
1202 5 3 11.7382 11.6074 4.55238 
1210 6 -1 7.66973 8.61615 10.6924 
1213 6 -1 11.6619 11.0888 1.00882 
1207 6 -1 10.9017 13.1617 1.9405 
1204 5 3 11.073 12.8323 3.02724 
1206 6 -1 2.34746 9.1223 19.851 
1220 8 -1 12.0767 13.9078 16.6179 
1219 8 -1 4.27432 10.6508 14.9247 
1212 6 -1 12.925 8.0216 15.3437 
ITEM: TIMESTEP
17000
ITEM: NUMBER OF ATOMS
20
ITEM: BOX BOUNDS pp pp ff
0 15
0 15
0 22
ITEM: ATOMS id type q x y z 
1208 6 -1 1.54665 1.40604 2.27686 
1203 5 3 6.41389 2.47512 1.6563 
1218 7 -1 14.7814 2.73922 6.50986 
1201 5 3 14.9402 7.31184 3.31667 
1214 6 -1 7.07726 0.117295 9.03229 
1206 6 -1 13.2453 6.47246 16.4373 
1205 6 -1 3.03712 4.97948 18.8705 
1211 6 -1 2.55828 1.13132 16.0372 
1219 8 -1 7.56576 5.42066 18.1311 
1213 6 -1 12.1806 8.9048 2.75904 
1207 6 -1 10.6197 12.6895 1.09891 
1204 5 3 10.0456 13.3426 3.10619 
1216 6 -1 4.58974 9.01552 4.65174 
1202 5 3 11.5262 10.1024 4.09884 
1212 6 -1 8.5404 14.9414 9.45556 
1220 8 -1 6.19201 8.26518 16.2483 
1217 7 -1 2.82552 13.9215 16.9518 
1209 6 -1 7.82318 8.68299 20.8717 
1210 6 -1 4.88849 7.99015 14.6119 
1215 6 -1 14.8788 14.6401 18.7407 
ITEM: TIMESTEP
18000
ITEM: NUMBER OF ATOMS
20
ITEM: BOX BOUNDS pp pp ff
0 15
0 15
0 22
ITEM: ATOMS id type q x y z 
1203 5 3 6.24714 1.86922 2.049 
1216 6 -1 0.208428 7.21048 6.35773 
1215 6 -1 9.77912 3.87201 9.94454 
1218 7 -1 1.14553 4.57731 4.10832 
1211 6 -1 1.5738 4.77678 11.7695 
1219 8 -1 0.666715 4.02432 20.1095 
1206 6 -1 13.5987 5.3544 12.1057 
1205 6 -1 12.4092 6.69176 18.8068 
1209 6 -1 5.84044 5.69275 20.6446 
1210 6 -1 1.91145 3.63611 19.2224 
1217 7 -1 12.6973 0.842563 17.6383 
1214 6 -1 4.65357 5.73646 11.4832 
1212 6 -1 6.49789 0.905199 15.2341 
1213 6 -1 12.7991 9.70293 3.48547 
1207 6 -1 10.8057 13.307 2.55083 
1204 5 3 9.59654 12.8232 2.889 
1202 5 3 10.9259 10.2908 5.90379 
1208 6 -1 1.315 14.7719 2.43111 
1201 5 3 0.2299 8.55762 2.79883 
1220 8 -1 12.3289 9.52105 19.3654 
ITEM: TIMESTEP
19000
ITEM: NUMBER OF ATOMS
20
ITEM: BOX BOUNDS pp pp ff
0 15
0 15
0 22
ITEM: ATOMS id type q x y z 
1216 6 -1 0.368576 6.6091 5.88722 
1203 5 3 7.02973 1.56675 2.16676 
1208 6 -1 1.93474 0.773436 0.986563 
1218 7 -1 0.984832 4.84222 5.13781 
1214 6 -1 7.044 2.8265 7.56382 
1201 5 3 0.322245 7.35815 2.43128 
1206 6 -1 5.62205 5.53272 17.5588 
1219 8 -1 13.1027 1.18136 20.2526 
1220 8 -1 4.49148 0.6903 17.6101 
1209 6 -1 3.34753 2.11537 19.4562 
1213 6 -1 12.7661 12.3167 2.0855 
1207 6 -1 11.4803 14.019 2.715 
1204 5 3 10.426 13.3901 2.79265 
1202 5 3 9.48647 10.4395 6.08003 
1215 6 -1 1.89864 7.80059 6.10355 
1211 6 -1 6.89602 8.81248 8.42307 
1212 6 -1 4.50676 10.8668 13.1492 
1205 6 -1 3.25673 13.831 16.8462 
1217 7 -1 8.50811 11.572 16.5658 
1210 6 -1 7.7756 9.28716 19.2796 
ITEM: TIMESTEP
20000
ITEM: NUMBER OF ATOMS
20
ITEM: BOX BOUNDS pp pp ff
0 15
0 15
0 22
ITEM: ATOMS id type q x y z 
1208 6 -1 0.701375 2.5845 2.04085 
1203 5 3 5.83696 1.68588 1.01019 
1218 7 -1 1.04168 5.69607 5.48257 
1214 6 -1 8.74125 3.22352 13.9275 
1209 6 -1 2.90442 13.6172 7.32357 
1204 5 3 9.16826 12.6217 4.77081 
1213 6 -1 12.4318 13.003 3.71996 
1207 6 -1 11.2193 14.9612 3.26995 
1202 5 3 7.78718 10.1461 6.41598 
1205 6 -1 10.7058 10.5552 8.59454 
1201 5 3 0.18392 8.57359 2.56939 
1215 6 -1 0.208936 13.5238 8.99313 
1211 6 -1 8.63224 11.061 7.54439 
1219 8 -1 1.86043 9.64095 14.7541 
1206 6 -1 5.68307 13.847 16.6553 
1212 6 -1 13.3257 10.2286 17.371 
1210 6 -1 11.9704 7.83513 19.3661 
1217 7 -1 10.4684 14.6796 11.5685 
1216 6 -1 5.10796 7.68184 16.7696 
1220 8 -1 4.72977 7.55127 11.323 
